<LesHouchesEvents version="1.0">  
<!-- T1 Additional XML structures can go here -->
<!-- test1_log -->
<header>
<!-- T2 Additional XML tags can go here -->
</header>
<!-- T3 Additional XML structures can go here -->
<init>
    2212   -2212  9.800000E+02  9.800000E+02     0     0     7     7     3     2
  5.220106E+00  5.384128E-01  1.000000E+00    81
  2.602564E-01  1.062492E-01  1.000000E+00    82
 # further comments can go here, but not earlier in this block
</init>
<!-- Additional XML structures can go here -->
<event>
    12    81  1.000000E+00  1.733125E+02  7.819848E-03  1.156692E-01
       2   -1    0    0  101    0  0.0000000000E+00  0.0000000000E+00  1.0838163607E+02  1.0838163607E+02  0.0000000000E+00  0.000000E+00  9.0000E+00
      -2   -1    0    0    0  102  0.0000000000E+00  0.0000000000E+00 -2.7976111253E+02  2.7976111253E+02  0.0000000000E+00  0.000000E+00  9.0000E+00
       6    2    1    2  101    0  3.3629095553E+01  8.9115695965E+00 -1.1059648961E+02  2.1241781824E+02  1.7798711709E+02  0.000000E+00  9.0000E+00
      -6    2    1    2    0  102 -3.3629095553E+01 -8.9115695965E+00 -6.0782986840E+01  1.7572493036E+02  1.6116559038E+02  0.000000E+00  9.0000E+00
      24    2    3    0    0    0 -3.0884654830E+01 -1.2140252163E+01 -4.7852784957E+00  8.6623320800E+01  7.9871479200E+01  0.000000E+00  9.0000E+00
       5    1    3    0  101    0  6.4513750383E+01  2.1051821759E+01 -1.0581121112E+02  1.2579449744E+02  4.8000000000E+00  0.000000E+00  9.0000E+00
     -24    2    4    0    0    0 -5.0940382043E+01  3.4880802250E+01 -7.5291578188E+01  1.2621743906E+02  8.0314552164E+01  0.000000E+00  9.0000E+00
      -5    1    4    0    0  102  1.7311286490E+01 -4.3792371846E+01  1.4508591348E+01  4.9507491299E+01  4.8000000000E+00  0.000000E+00  9.0000E+00
      -1    1    5    0    0  103  1.8584463332E+01  9.1657242037E+00  1.8652036768E+01  2.7881896512E+01  3.3000000000E-01  0.000000E+00  9.0000E+00
       2    1    5    0  103    0 -4.9469118162E+01 -2.1305976366E+01 -2.3437315264E+01  5.8741424288E+01  3.3000000000E-01  0.000000E+00  9.0000E+00
      13    1    7    0    0    0  9.6912588119E+00  3.9074488577E+01 -2.5560060185E+01  4.7687147069E+01  1.0566000000E-01  0.000000E+00  9.0000E+00
     -14    1    7    0    0    0 -6.0631640855E+01 -4.1936863270E+00 -4.9731518002E+01  7.8530291993E+01  0.0000000000E+00  0.000000E+00  9.0000E+00
# further comments on the event above
</event>
<event attr="hello">
    12    81  1.000000E+00  2.453729E+02  7.850576E-03  1.102586E-01
       2   -1    0    0  101    0  0.0000000000E+00  0.0000000000E+00  1.4168500180E+02  1.4168500180E+02  0.0000000000E+00  0.000000E+00  9.0000E+00
      -2   -1    0    0    0  102  0.0000000000E+00  0.0000000000E+00 -5.1193431229E+02  5.1193431229E+02  0.0000000000E+00  0.000000E+00  9.0000E+00
       6    2    1    2  101    0  1.4483021237E+02 -9.1836222700E+01 -3.2020944169E+02  4.0376632938E+02  1.7630507646E+02  0.000000E+00  9.0000E+00
      -6    2    1    2    0  102 -1.4483021237E+02  9.1836222700E+01 -5.0039868808E+01  2.4985298471E+02  1.7467925831E+02  0.000000E+00  9.0000E+00
      24    2    3    0    0    0  6.6573250937E+01 -1.0557760324E+02 -2.7628620725E+02  3.1285280962E+02  7.7228130408E+01  0.000000E+00  9.0000E+00
       5    1    3    0  101    0  7.8256961429E+01  1.3741380542E+01 -4.3923234434E+01  9.0913519757E+01  4.8000000000E+00  0.000000E+00  9.0000E+00
     -24    2    4    0    0    0 -5.2331928485E+01  1.3655957736E+01  3.5832022017E+01  1.0130969814E+02  7.7811343743E+01  0.000000E+00  9.0000E+00
      -5    1    4    0    0  102 -9.2498283882E+01  7.8180264964E+01 -8.5871890826E+01  1.4854328657E+02  4.8000000000E+00  0.000000E+00  9.0000E+00
      -3    1    5    0    0  103  1.3698476364E+01 -8.8968981168E+01 -1.5010039084E+02  1.7502429887E+02  5.0000000000E-01  0.000000E+00  9.0000E+00
       4    1    5    0  103    0  5.2874774574E+01 -1.6608622073E+01 -1.2618581641E+02  1.3782851075E+02  1.5000000000E+00  0.000000E+00  9.0000E+00
      15    1    7    0    0    0 -5.3810426731E+01 -1.6793177176E+00 -8.3584775043E+00  5.4510586203E+01  1.7770000000E+00  0.000000E+00  9.0000E+00
     -16    1    7    0    0    0  1.4784982465E+00  1.5335275454E+01  4.4190499522E+01  4.6799111939E+01  0.0000000000E+00  0.000000E+00  9.0000E+00
</event>
<event>
    12    81  1.000000E+00  1.776410E+02  7.822020E-03  1.152678E-01
       2   -1    0    0  101    0  0.0000000000E+00  0.0000000000E+00  2.1971684569E+02  2.1971684569E+02  0.0000000000E+00  0.000000E+00  9.0000E+00
      -2   -1    0    0    0  102  0.0000000000E+00  0.0000000000E+00 -1.4407440590E+02  1.4407440590E+02  0.0000000000E+00  0.000000E+00  9.0000E+00
       6    2    1    2  101    0 -2.8007358027E+01 -1.4336341199E+01  4.8014156840E+01  1.8405373765E+02  1.7487274317E+02  0.000000E+00  9.0000E+00
      -6    2    1    2    0  102  2.8007358027E+01  1.4336341199E+01  2.7628282952E+01  1.7973751394E+02  1.7479218837E+02  0.000000E+00  9.0000E+00
      24    2    3    0    0    0 -1.9076498236E+01 -7.5377093349E+01  1.2033037033E+01  1.1247570567E+02  8.0376435601E+01  0.000000E+00  9.0000E+00
       5    1    3    0  101    0 -8.9308597910E+00  6.1040752150E+01  3.5981119807E+01  7.1578031980E+01  4.8000000000E+00  0.000000E+00  9.0000E+00
     -24    2    4    0    0    0 -1.6204445062E+01  4.9039786977E+01 -3.0703182195E+01  9.8591888630E+01  7.8167706633E+01  0.000000E+00  9.0000E+00
      -5    1    4    0    0  102  4.4211803088E+01 -3.4703445778E+01  5.8331465148E+01  8.1145625313E+01  4.8000000000E+00  0.000000E+00  9.0000E+00
      -1    1    5    0    0  103  1.8159044482E+01 -6.8058553500E+00  2.6779046411E+01  3.3065038791E+01  3.3000000000E-01  0.000000E+00  9.0000E+00
       2    1    5    0  103    0 -3.7235542717E+01 -6.8571237999E+01 -1.4746009379E+01  7.9410666883E+01  3.3000000000E-01  0.000000E+00  9.0000E+00
       1    1    7    0  104    0  1.6465237456E+01  5.7169697352E+01 -2.4579279760E+01  6.4371796878E+01  3.3000000000E-01  0.000000E+00  9.0000E+00
      -2    1    7    0    0  104 -3.2669682518E+01 -8.1299103748E+00 -6.1239024357E+00  3.4220091752E+01  3.3000000000E-01  0.000000E+00  9.0000E+00
</event>
<!-- Additional XML structures can go here -->
<event>
    12    81  1.000000E+00  2.161450E+02  7.839339E-03  1.121726E-01
       2   -1    0    0  101    0  0.0000000000E+00  0.0000000000E+00  2.0905097329E+02  2.0905097329E+02  0.0000000000E+00  0.000000E+00  9.0000E+00
      -2   -1    0    0    0  102  0.0000000000E+00  0.0000000000E+00 -2.2387000524E+02  2.2387000524E+02  0.0000000000E+00  0.000000E+00  9.0000E+00
       6    2    1    2  101    0 -2.8666225329E+01  1.2254465689E+02 -1.6459167668E+01  2.1588531728E+02  1.7463281654E+02  0.000000E+00  9.0000E+00
      -6    2    1    2    0  102  2.8666225329E+01 -1.2254465689E+02  1.6401357138E+00  2.1703566125E+02  1.7681301650E+02  0.000000E+00  9.0000E+00
      24    2    3    0    0    0  4.3122883270E+01  9.3368100532E+01  1.9268215950E+01  1.3041933870E+02  7.7850847804E+01  0.000000E+00  9.0000E+00
       5    1    3    0  101    0 -7.1789108599E+01  2.9176556359E+01 -3.5727383618E+01  8.5465978580E+01  4.8000000000E+00  0.000000E+00  9.0000E+00
     -24    2    4    0    0    0  8.0222330450E+01 -8.3419791329E+01  3.4131504051E+01  1.4445800562E+02  7.9427148575E+01  0.000000E+00  9.0000E+00
      -5    1    4    0    0  102 -5.1556105120E+01 -3.9124865562E+01 -3.2491368337E+01  7.2577655631E+01  4.8000000000E+00  0.000000E+00  9.0000E+00
      -1    1    5    0    0  103 -2.0727740885E+01  8.6000619505E+00  7.4013836638E+00  2.3632386420E+01  3.3000000000E-01  0.000000E+00  9.0000E+00
       2    1    5    0  103    0  6.3850624155E+01  8.4768038581E+01  1.1866832286E+01  1.0678695229E+02  3.3000000000E-01  0.000000E+00  9.0000E+00
      15    1    7    0    0    0  2.3287382355E+01 -7.9738850156E+01  2.4246092562E+01  8.6554128351E+01  1.7770000000E+00  0.000000E+00  9.0000E+00
     -16    1    7    0    0    0  5.6934948095E+01 -3.6809411735E+00  9.8854114887E+00  5.7903877269E+01  0.0000000000E+00  0.000000E+00  9.0000E+00
</event>
<event>
    12    81  1.000000E+00  2.722156E+02  7.859798E-03  1.087399E-01
       1   -1    0    0  101    0  0.0000000000E+00  0.0000000000E+00  3.0998147853E+02  3.0998147853E+02  0.0000000000E+00  0.000000E+00  9.0000E+00
      -1   -1    0    0    0  102  0.0000000000E+00  0.0000000000E+00 -4.2658276564E+02  4.2658276564E+02  0.0000000000E+00  0.000000E+00  9.0000E+00
       6    2    1    2  101    0  1.5202805136E+02 -1.3564883740E+02 -3.0207433868E+02  4.0425677542E+02  1.7510425150E+02  0.000000E+00  9.0000E+00
      -6    2    1    2    0  102 -1.5202805136E+02  1.3564883740E+02  1.8547305157E+02  3.3230746875E+02  1.8578176832E+02  0.000000E+00  9.0000E+00
      24    2    3    0    0    0  7.0178719712E+01 -1.1462538992E+02 -2.7233123119E+02  3.1454060698E+02  8.1899091839E+01  0.000000E+00  9.0000E+00
       5    1    3    0  101    0  8.1849331652E+01 -2.1023447476E+01 -2.9743107493E+01  8.9716168437E+01  4.8000000000E+00  0.000000E+00  9.0000E+00
     -24    2    4    0    0    0 -1.2759536169E+02  1.6377098894E+02  1.1113217675E+02  2.4901630836E+02  8.0976836044E+01  0.000000E+00  9.0000E+00
      -5    1    4    0    0  102 -2.4432689677E+01 -2.8122151538E+01  7.4340874815E+01  8.3291160397E+01  4.8000000000E+00  0.000000E+00  9.0000E+00
     -11    1    5    0    0    0  6.6986380224E+01 -9.2588244672E+01 -1.4177276647E+02  1.8209688493E+02  5.1000000000E-04  0.000000E+00  9.0000E+00
      12    1    5    0    0    0  3.1923394877E+00 -2.2037145252E+01 -1.3055846472E+02  1.3244372206E+02  0.0000000000E+00  0.000000E+00  9.0000E+00
       3    1    7    0  103    0 -4.5335729587E+01  4.3867031558E+01  7.7191694899E+01  9.9691788008E+01  5.0000000000E-01  0.000000E+00  9.0000E+00
      -4    1    7    0    0  103 -8.2259632100E+01  1.1990395738E+02  3.3940481854E+01  1.4932452035E+02  1.5000000000E+00  0.000000E+00  9.0000E+00
</event>
</LesHouchesEvents>
