<LesHouchesEvents version="3.0">
<!--
file generated with POWHEG-BOX-V2
SVN status Begin
/home/mseidel/Tools/POWHEG-BOX-RES
URL: svn://powhegbox.mib.infn.it/trunk/POWHEG-BOX-RES
Rev.3248
clean version
/home/mseidel/Tools/POWHEG-BOX-RES/b_bbar_4l
URL: svn://powhegbox.mib.infn.it/trunk/User-Processes-RES/b_bbar_4l
Rev.3248
Warning: not a clean version:
M       pythia82F77.cc
SVN status End
Input file powheg.input contained:
!!!!!!!!!!!!!!!!!!!!!!!!!!!!!!!!!!!!!!!!!!!!!!!!!!!!!!!!!!!!!!!!!!!!!!!!!!!!!!!!!!!!!!!!!!!!!!!!!!!!
! Standard settings which have the same meaning as in POWHEG-BOX-V2
!!!!!!!!!!!!!!!!!!!!!!!!!!!!!!!!!!!!!!!!!!!!!!!!!!!!!!!!!!!!!!!!!!!!!!!!!!!!!!!!!!!!!!!!!!!!!!!!!!!!
numevts 21000                                    ! number of events to be generated
ih1   1                                          ! hadron 1 (1 for protons, -1 for antiprotons)
ih2   1                                          ! hadron 2 (1 for protons, -1 for antiprotons)
ndns1 131                                        ! pdf set for hadron 1 (mlm numbering) [if not usin
ndns2 131                                        ! pdf set for hadron 2 (mlm numbering) [if not usin
ebeam1 6500d0                                    ! energy of beam 1
ebeam2 6500d0                                    ! energy of beam 2
lhans1 260000                                     ! pdf set for hadron 1 (LHA numbering) [if using L
lhans2 260000                                     ! pdf set for hadron 2 (LHA numbering) [if using L
#QCDLambda5  0.2                                 ! to be set only if using different pdf sets for th

use-old-grid 1                                   ! if 1 use old grid if file pwggrids.dat is present
use-old-ubound 1                                 ! if 1 use norm of upper bounding function stored i

ncall1 80000                                     ! number of calls for initializing the integration
itmx1    1                                       ! number of iterations for initializing the integra
ncall2 100000                                    ! number of calls for computing the integral and fi
itmx2   3                                        ! number of iterations for computing the integral a
foldcsi   1                                      ! number of folds on csi integration
foldy     1                                      ! number of folds on  y  integration
foldphi   1                                      ! number of folds on phi integration
nubound 10000                                    ! number of bbarra calls to setup norm of upper bou
icsimax  1                                       ! <= 100, number of csi subdivision when computing
iymax    1                                       ! <= 100, number of y subdivision when computing th
xupbound 2d0                                     ! increase upper bound for radiation generation
storemintupb 1                                   ! (default 0, do not) Store st2 btilde calls to set
fastbtlbound 1                                   ! (default 0, do not) Turn on fast calculation of t


!!!!!!!!!!!!!!!!!!!!!!!!!!!!!!!!!!!!!!!!!!!!!!!!!!!!!!!!!!!!!!!!!!!!!!!!!!!!!!!!!!!!!!!!!!!!!!!!!!!!
! Some standard optional settings
!!!!!!!!!!!!!!!!!!!!!!!!!!!!!!!!!!!!!!!!!!!!!!!!!!!!!!!!!!!!!!!!!!!!!!!!!!!!!!!!!!!!!!!!!!!!!!!!!!!!
#renscfact  1d0                                  ! (default 1d0) ren scale factor: muren  = muref *
#facscfact  1d0                                  ! (default 1d0) fac scale factor: mufact = muref *
#bornonly   1                                    ! (default 0) if 1 do Born only
#smartsig   0                                    ! (default 1) remember equal amplitudes (0 do not r
#ptsqmin    0.8                                  ! (default 0.8 GeV) minimum pt for generation of ra
#charmthr   1.5                                  ! (default 1.5 GeV) charm treshold for gluon splitt
#bottomthr  5.0                                  ! (default 5.0 GeV) bottom treshold for gluon split
#testplots  0                                    ! (default 0, do not) do NLO and PWHG distributions
#charmthrpdf  1.5                                ! (default 1.5 GeV) pdf charm treshold
#bottomthrpdf 5.0                                ! (default 5.0 GeV) pdf bottom treshold

#iseed    55                                     ! initialize random number sequence
#rand1     -1                                    ! initialize random number sequence
#rand2     -1                                    ! initialize random number sequence


!!!!!!!!!!!!!!!!!!!!!!!!!!!!!!!!!!!!!!!!!!!!!!!!!!!!!!!!!!!!!!!!!!!!!!!!!!!!!!!!!!!!!!!!!!!!!!!!!!!!
! Settings for piloting "manyseeds" (parallel) runs
!!!!!!!!!!!!!!!!!!!!!!!!!!!!!!!!!!!!!!!!!!!!!!!!!!!!!!!!!!!!!!!!!!!!!!!!!!!!!!!!!!!!!!!!!!!!!!!!!!!!
manyseeds 1                                      ! (default 0) allow for the generation of different
parallelstage 4
xgriditeration 1                                 ! which grid iteration when in parallelstage 4


!!!!!!!!!!!!!!!!!!!!!!!!!!!!!!!!!!!!!!!!!!!!!!!!!!!!!!!!!!!!!!!!!!!!!!!!!!!!!!!!!!!!!!!!!!!!!!!!!!!!
! POWHEG-BOX-RES and bb4l relevant settings
!!!!!!!!!!!!!!!!!!!!!!!!!!!!!!!!!!!!!!!!!!!!!!!!!!!!!!!!!!!!!!!!!!!!!!!!!!!!!!!!!!!!!!!!!!!!!!!!!!!!
allrad 1                                         ! (default 0, single shower scheme) Turns on multip
hdamp 172.5                                      ! Using a damping factor h**2/(pt2+h**2) to separat
withdamp 1                                       ! Turn on calculation of the remnants


!!!!!!!!!!!!!!!!!!!!!!!!!!!!!!!!!!!!!!!!!!!!!!!!!!!!!!!!!!!!!!!!!!!!!!!!!!!!!!!!!!!!!!!!!!!!!!!!!!!!
! Physics constants
!!!!!!!!!!!!!!!!!!!!!!!!!!!!!!!!!!!!!!!!!!!!!!!!!!!!!!!!!!!!!!!!!!!!!!!!!!!!!!!!!!!!!!!!!!!!!!!!!!!!
#tmass      172.5d0                              ! (default 172.5) top quark mass (in the matrix ele
#tmass_phsp 172.5d0                              ! (default 172.5) top quark mass (in the phase spac
#twidth                                          ! (default unset) top quark width (calculated from
#zmass      91.188d0                             ! (default 91.188d0) mass of Z-boson
#zwidth     2.441d0                              ! (default 2.441d0) width of Z-boson
#wmass      80.419d0                             ! (default 80.419d0) mass of W-boson
#wwidth     2.04807d0                            ! (default 2.04807d0) width of W-boson
#hmass      125d0                                ! (default 125d0) mass of Higgs boson
#hwidth     0.403d-2                             ! (default 0.403d-2) width of the Higgs boson
#bmass      4.75d0                               ! (default 4.75d0) mass of the bottom quark
#ewscheme   2                                    ! (default 2) 1...wmass, zmass, grefmi input; alpha
#gfermi     1.1658029175194381d-5                ! (default 1.1658029175194381d-5) gfermi
#alpha      0.007546772                          ! (default 0.007546772) alpha


!!!!!!!!!!!!!!!!!!!!!!!!!!!!!!!!!!!!!!!!!!!!!!!!!!!!!!!!!!!!!!!!!!!!!!!!!!!!!!!!!!!!!!!!!!!!!!!!!!!!
! Other settings
!!!!!!!!!!!!!!!!!!!!!!!!!!!!!!!!!!!!!!!!!!!!!!!!!!!!!!!!!!!!!!!!!!!!!!!!!!!!!!!!!!!!!!!!!!!!!!!!!!!!
# clobberlhe 1                                   ! (default 0, do not) Delete pwgevents.lhe file if

!!!!!!!!!!!!!!!!!!!!!!!!!!!!!!!!!!!!!!!!!!!!!!!!!!!!!!!!!!!!!!!!!!!!!!!!!!!!!!!!!!!!!!!!!!!!!!!!!!!!
! The following is the minimal settings that we used for the publication of our paper.
! It performs event generation with the `for_reweighting 1` settings (no virtual and modified subtra
! Thus the 'default' weight has the correct cross section for the parameters given in the powheg.inp
! a useful cross section.
! If more weights are needed, they should be included in the <initrwgt> section (see README.Compress
! If weights are added to a previously existing .lhe file, i.e. `rwl_add 1`, the for_reweighting fla
! is always used.
!!!!!!!!!!!!!!!!!!!!!!!!!!!!!!!!!!!!!!!!!!!!!!!!!!!!!!!!!!!!!!!!!!!!!!!!!!!!!!!!!!!!!!!!!!!!!!!!!!!!
for_reweighting 1                                ! (default 0) Modifies subtraction to reduce reweig
rwl_file '-'                                     ! If set to '-' read the xml reweighting info from
rwl_group_events 100                             ! (default 1000) It keeps 100 events in memory, rep
lhapdf6maxsets 1                                 ! (default 10) Maximum number of lhapdf6 sets that
End of powheg.input content
PDF package: lha
 Random number generator initialized with:            1             0             0
-->
<header>
<initrwgt>
<weight id='1' >default</weight>
</initrwgt>
</header>
<init>
     2212     2212  6.50000E+03  6.50000E+03     -1     -1     -1     -1     -4      1
  0.00000E+00  0.00000E+00  1.00000E+00  10001
</init>
<event>
     15  10001  1.35417E+01  2.40052E+01 -1.00000E+00  2.01994E-01
      21    -1     0     0   511   501  0.000000000E+00  0.000000000E+00  3.159660184E+02  3.159660184E+02  0.000000000E+00  0.00000E+00  9.000E+00
      21    -1     0     0   507   502  0.000000000E+00  0.000000000E+00 -1.184022305E+02  1.184022305E+02  0.000000000E+00  0.00000E+00  9.000E+00
      -6     2     1     2     0   501  4.498982836E+01  2.075845438E+01  1.010849707E+02  2.058047071E+02  1.722858325E+02  0.00000E+00  9.000E+00
       6     2     1     2   507     0 -3.327988633E+01 -4.171379156E+01  9.623946220E+01  2.045571637E+02  1.724355181E+02  0.00000E+00  9.000E+00
     -24     2     3     3     0     0  9.636138096E+00  7.105957281E+01  3.259745675E+01  1.128557157E+02  8.081769812E+01  0.00000E+00  9.000E+00
      24     2     4     4     0     0 -5.947061641E+01 -5.081485500E+01  1.197995940E+02  1.675676874E+02  8.722432830E+01  0.00000E+00  9.000E+00
     -11     1     6     6     0     0 -8.569697290E+00 -5.978984626E+01  3.983740815E+01  7.235526598E+01  6.743495762E-07  0.00000E+00  9.000E+00
      12     1     6     6     0     0 -5.090091912E+01  8.974991257E+00  7.996218582E+01  9.521242144E+01  2.523185073E-06  0.00000E+00  9.000E+00
      13     1     5     5     0     0  2.241435603E+01 -8.756800749E+00  1.949060664E+01  3.096721916E+01  8.596304120E-07  0.00000E+00  9.000E+00
     -14     1     5     5     0     0 -1.277821793E+01  7.981637356E+01  1.310685011E+01  8.188849651E+01  2.622604370E-06  0.00000E+00  9.000E+00
       5     1     4     4   513     0  2.468930894E+01  7.869322206E+00 -2.298980980E+01  3.496544098E+01  4.750000000E+00  0.00000E+00  9.000E+00
      -5     1     3     3     0   512  2.746742565E+01 -3.309092650E+01  4.125618860E+01  5.978381459E+01  4.750000000E+00  0.00000E+00  9.000E+00
      21     1     1     2   511   502 -1.170994202E+01  2.095533719E+01  2.393550700E-01  2.400637810E+01  9.246152510E-07  0.00000E+00  9.000E+00
      21     1     3     3   512   501  7.886264613E+00 -1.721019193E+01  2.723132531E+01  3.316517682E+01  5.840038640E-07  0.00000E+00  9.000E+00
      21     1     4     4   507   513  1.501421131E+00  1.231741235E+00 -5.703219647E-01  2.024035332E+00  4.148307713E-08  0.00000E+00  9.000E+00
#rwgt            1          17   24.424540112025689                1        1441           0
<weights>
0.18101E+02
</weights>
</event>
<event>
     13  10001  1.35417E+01  3.67150E+01 -1.00000E+00  1.47187E-01
      21    -1     0     0   502   501  0.000000000E+00  0.000000000E+00  7.474274145E+01  7.474274145E+01  0.000000000E+00  0.00000E+00  9.000E+00
      21    -1     0     0   507   512  0.000000000E+00  0.000000000E+00 -5.935440933E+02  5.935440933E+02  0.000000000E+00  0.00000E+00  9.000E+00
      -6     2     1     2     0   501 -3.705816951E+01  4.822126018E+01 -1.998720892E+02  2.717391736E+02  1.737663043E+02  0.00000E+00  9.000E+00
       6     2     1     2   507     0  6.344591456E+01 -2.269334003E+01 -2.013033355E+02  2.733249096E+02  1.721717211E+02  0.00000E+00  9.000E+00
     -24     2     3     3     0     0  3.636860671E+01 -1.160549056E+01 -7.871321078E+01  1.178796015E+02  7.900929023E+01  0.00000E+00  9.000E+00
      24     2     4     4     0     0  7.680258175E+01 -1.456152880E+01 -4.988873680E+01  1.210308844E+02  7.777476598E+01  0.00000E+00  9.000E+00
     -11     1     6     6     0     0  6.707452580E+01 -2.024912062E+01 -6.932476113E+01  9.856440232E+01  1.651812370E-06  0.00000E+00  9.000E+00
      12     1     6     6     0     0  9.728055951E+00  5.687591819E+00  1.943602433E+01  2.246648204E+01  1.192092896E-06  0.00000E+00  9.000E+00
      13     1     5     5     0     0  3.416610740E+01 -4.790960893E+00 -9.446946100E+01  1.005721396E+02  1.907348633E-06  0.00000E+00  9.000E+00
     -14     1     5     5     0     0  2.202499303E+00 -6.814529670E+00  1.575625022E+01  1.730746194E+01  6.743495762E-07  0.00000E+00  9.000E+00
       5     1     4     4   507     0 -1.335666719E+01 -8.131811228E+00 -1.514145987E+02  1.522940252E+02  4.750000000E+00  0.00000E+00  9.000E+00
      -5     1     3     3     0   501 -7.342677622E+01  5.982675075E+01 -1.211588785E+02  1.538595720E+02  4.750000000E+00  0.00000E+00  9.000E+00
      21     1     1     2   502   512 -2.638774505E+01 -2.552792015E+01 -1.176259271E+02  1.232227516E+02  1.907348633E-06  0.00000E+00  9.000E+00
#rwgt            2         113   41.630919536441148                1       72231           0
<weights>
0.13542E+02
</weights>
</event>
<event>
     15  10001  1.35417E+01  7.75504E+00 -1.00000E+00  2.87850E-01
       1    -1     0     0   511     0  0.000000000E+00  0.000000000E+00  2.027451551E+02  2.027451551E+02  0.000000000E+00  0.00000E+00  9.000E+00
      -1    -1     0     0     0   502  0.000000000E+00  0.000000000E+00 -5.808195223E+02  5.808195223E+02  0.000000000E+00  0.00000E+00  9.000E+00
      -6     2     1     2     0   502  3.545392736E+01 -4.129049909E+00 -3.993475442E+02  4.364679867E+02  1.724871367E+02  0.00000E+00  9.000E+00
       6     2     1     2   507     0 -3.721021637E+01  1.168260108E+01 -1.150256142E+02  2.105774570E+02  1.720200282E+02  0.00000E+00  9.000E+00
     -24     2     3     3     0     0 -1.984156793E+01  1.995668929E+01 -7.573011122E+01  1.070074194E+02  7.016823209E+01  0.00000E+00  9.000E+00
      24     2     4     4     0     0 -6.486822753E+01  5.652145854E+01 -9.015721442E+01  1.484580668E+02  8.067782877E+01  0.00000E+00  9.000E+00
     -11     1     6     6     0     0 -8.316102693E+01  5.438326853E+01 -7.311714256E+01  1.233669844E+02  1.651812370E-06  0.00000E+00  9.000E+00
      12     1     6     6     0     0  1.829279940E+01  2.138190017E+00 -1.704007186E+01  2.509108239E+01  6.307962682E-07  0.00000E+00  9.000E+00
      13     1     5     5     0     0 -4.402050165E+01  2.048833665E+01 -3.580633151E+01  6.032967662E+01  6.743495762E-07  0.00000E+00  9.000E+00
     -14     1     5     5     0     0  2.417893372E+01 -5.316473647E-01 -3.992377971E+01  4.667774278E+01  1.348699152E-06  0.00000E+00  9.000E+00
       5     1     4     4   513     0  2.342179971E+01 -4.557942869E+01 -2.601831901E+01  5.766784585E+01  4.750000000E+00  0.00000E+00  9.000E+00
      -5     1     3     3     0   512  5.479860061E+01 -2.224563949E+01 -3.029473713E+02  3.087028141E+02  4.750000000E+00  0.00000E+00  9.000E+00
      21     1     1     2   511   507  1.756289014E+00 -7.553551167E+00  1.362987912E+02  1.365192337E+02  1.907348633E-06  0.00000E+00  9.000E+00
      21     1     4     4   507   513  4.236211446E+00  7.405712198E-01  1.149919202E+00  4.451544374E+00  2.117852927E-07  0.00000E+00  9.000E+00
      21     1     3     3   512   502  4.968946749E-01 -1.840099706E+00 -2.067006164E+01  2.075775324E+01  0.000000000E+00  0.00000E+00  9.000E+00
#rwgt            1           4   1.3466570365392954E-002           1       85533           0
<weights>
0.13700E+02
</weights>
</event>
<event>
     15  10001  1.35417E+01  1.97636E+01 -1.00000E+00  2.78778E-01
      21    -1     0     0   507   512  0.000000000E+00  0.000000000E+00  9.750528046E+01  9.750528046E+01  0.000000000E+00  0.00000E+00  9.000E+00
      21    -1     0     0   501   502  0.000000000E+00  0.000000000E+00 -7.173991367E+02  7.173991367E+02  0.000000000E+00  0.00000E+00  9.000E+00
      -6     2     1     2     0   502  4.497240007E+01 -1.204696725E+02 -3.548086291E+02  4.147616024E+02  1.720539589E+02  0.00000E+00  9.000E+00
       6     2     1     2   507     0 -2.730326827E+01  1.116151955E+02 -9.784561547E+01  2.317394665E+02  1.758578846E+02  0.00000E+00  9.000E+00
     -24     2     3     3     0     0 -1.954563637E-02 -8.244398477E+01 -4.858970390E+01  1.023710592E+02  3.635743986E+01  0.00000E+00  9.000E+00
      24     2     4     4     0     0 -3.440923430E+01  7.315858264E+01 -1.342675835E+02  1.755847851E+02  7.915844339E+01  0.00000E+00  9.000E+00
     -11     1     6     6     0     0 -1.694723411E+01 -1.346006732E+01 -4.524454995E+01  5.015427655E+01  1.261592536E-06  0.00000E+00  9.000E+00
      12     1     6     6     0     0 -1.746200019E+01  8.661864997E+01 -8.902303358E+01  1.254305086E+02  1.907348633E-06  0.00000E+00  9.000E+00
      13     1     5     5     0     0 -1.060280117E+01 -6.519776330E+01 -4.881627056E+01  8.213522998E+01  2.023048729E-06  0.00000E+00  9.000E+00
     -14     1     5     5     0     0  1.058325553E+01 -1.724622147E+01  2.265666590E-01  2.023582924E+01  6.729280914E-07  0.00000E+00  9.000E+00
       5     1     4     4   511     0  9.293107183E+00  3.165968567E+01  3.590751610E+01  4.899601770E+01  4.750000000E+00  0.00000E+00  9.000E+00
      -5     1     3     3     0   513  4.558840013E+01 -3.404747022E+01 -2.949363637E+02  3.004123059E+02  4.750000000E+00  0.00000E+00  9.000E+00
      21     1     1     2   501   512 -1.766913179E+01  8.854477029E+00 -1.672396117E+02  1.684033483E+02  3.814697266E-06  0.00000E+00  9.000E+00
      21     1     4     4   507   511 -2.187141154E+00  6.796927161E+00  5.144519486E-01  7.158663706E+00  2.292794370E-07  0.00000E+00  9.000E+00
      21     1     3     3   513   502 -5.964544241E-01 -3.978217509E+00 -1.128256151E+01  1.197823721E+01  1.685873940E-07  0.00000E+00  9.000E+00
#rwgt            1          17   21.907683283359770                1       87610           0
<weights>
0.11415E+02
</weights>
</event>
<event>
     15  10001  1.35417E+01  7.24411E+01 -1.00000E+00  1.97168E-01
      21    -1     0     0   507   511  0.000000000E+00  0.000000000E+00  6.385406972E+01  6.385406972E+01  0.000000000E+00  0.00000E+00  9.000E+00
      21    -1     0     0   501   502  0.000000000E+00  0.000000000E+00 -1.871021846E+03  1.871021846E+03  0.000000000E+00  0.00000E+00  9.000E+00
      -6     2     1     2     0   502  2.100557024E+02 -1.617011639E+02 -1.218722721E+03  1.259117645E+03  1.726890518E+02  0.00000E+00  9.000E+00
       6     2     1     2   507     0 -1.517143477E+02  1.187593827E+02 -4.910980677E+02  5.544151777E+02  1.705222650E+02  0.00000E+00  9.000E+00
     -24     2     3     3     0     0  1.946127760E+02 -1.855813591E+02 -9.892599408E+02  1.026947297E+03  6.058834798E+01  0.00000E+00  9.000E+00
      24     2     4     4     0     0 -1.357400539E+01  2.944453159E+01 -1.091467127E+02  1.384864512E+02  7.883056651E+01  0.00000E+00  9.000E+00
     -11     1     6     6     0     0 -9.655563793E+00  3.630749246E+01 -1.196114545E+02  1.253728996E+02  4.046097457E-06  0.00000E+00  9.000E+00
      12     1     6     6     0     0 -3.918441600E+00 -6.862960871E+00  1.046474174E+01  1.311355162E+01  1.464868275E-06  0.00000E+00  9.000E+00
      13     1     5     5     0     0  5.881688917E+01 -2.241466629E+01 -2.511431536E+02  2.589106551E+02  6.607249480E-06  0.00000E+00  9.000E+00
     -14     1     5     5     0     0  1.357958869E+02 -1.631666928E+02 -7.381167872E+02  7.680366424E+02  2.157918644E-05  0.00000E+00  9.000E+00
       5     1     4     4   514     0 -7.707848597E+01  5.124219775E+01 -2.124371814E+02  2.317735411E+02  4.750000000E+00  0.00000E+00  9.000E+00
      -5     1     3     3     0   512  1.843041315E+01  2.461140580E+01 -1.847011206E+02  1.873031444E+02  4.750000000E+00  0.00000E+00  9.000E+00
      21     1     1     2   501   511 -5.834135473E+01  4.294178120E+01 -9.734698739E+01  1.213430929E+02  2.336015456E-06  0.00000E+00  9.000E+00
      21     1     3     3   512   502 -2.987486743E+00 -7.312105885E-01 -4.476165990E+01  4.486720343E+01  1.066240300E-06  0.00000E+00  9.000E+00
      21     1     4     4   507   514 -6.106185636E+01  3.807265331E+01 -1.695141737E+02  1.841551854E+02  1.907348633E-06  0.00000E+00  9.000E+00
#rwgt            1          17   39.438307624088168                1      109678           0
<weights>
0.11835E+02
</weights>
</event>
<event>
     15  10001  1.35417E+01  1.42375E+01 -1.00000E+00  2.85806E-01
      21    -1     0     0   512   501  0.000000000E+00  0.000000000E+00  2.210601818E+02  2.210601818E+02  0.000000000E+00  0.00000E+00  9.000E+00
      21    -1     0     0   507   502  0.000000000E+00  0.000000000E+00 -9.726406108E+02  9.726406108E+02  0.000000000E+00  0.00000E+00  9.000E+00
      -6     2     1     2     0   501 -8.672020991E+01  7.118819518E+01  1.534422546E+02  2.599766191E+02  1.773560346E+02  0.00000E+00  9.000E+00
       6     2     1     2   507     0  8.966832504E+01 -8.511717309E+01 -8.001423126E+02  8.278818377E+02  1.728446562E+02  0.00000E+00  9.000E+00
     -24     2     3     3     0     0 -4.376624754E+01 -3.184750623E+01  4.802569976E+01  1.053921849E+02  7.662438725E+01  0.00000E+00  9.000E+00
      24     2     4     4     0     0  6.704646604E+01 -1.035878107E+02 -3.942895161E+02  4.208881849E+02  8.035532697E+01  0.00000E+00  9.000E+00
     -11     1     6     6     0     0  4.999787195E+01 -5.449222410E+01 -1.144561118E+02  1.362695535E+02  1.348699152E-06  0.00000E+00  9.000E+00
      12     1     6     6     0     0  1.704859408E+01 -4.909558657E+01 -2.798334043E+02  2.846186314E+02  5.394796609E-06  0.00000E+00  9.000E+00
      13     1     5     5     0     0 -2.060736810E+01  2.045050745E+01 -2.413380099E+00  2.913264970E+01  5.709303636E-07  0.00000E+00  9.000E+00
     -14     1     5     5     0     0 -2.315887944E+01 -5.229801367E+01  5.043907986E+01  7.625953519E+01  3.504023184E-06  0.00000E+00  9.000E+00
       5     1     4     4   513     0  2.307512980E+01  1.853003026E+01 -4.013757114E+02  4.024932891E+02  4.750000000E+00  0.00000E+00  9.000E+00
      -5     1     3     3     0   511 -4.137691964E+01  1.021491597E+02  1.000690070E+02  1.489391451E+02  4.750000000E+00  0.00000E+00  9.000E+00
      21     1     1     2   512   502 -2.948115129E+00  1.392897790E+01 -1.048803711E+02  1.058423358E+02  1.348699152E-06  0.00000E+00  9.000E+00
      21     1     3     3   511   501 -1.577042734E+00  8.865417394E-01  5.347547882E+00  5.645289044E+00  1.576990671E-07  0.00000E+00  9.000E+00
      21     1     4     4   507   513 -4.532707953E-01 -5.939267821E-02 -4.477085128E+00  4.500363668E+00  8.429369702E-08  0.00000E+00  9.000E+00
#rwgt            1          17   23.997102931921901                1      132272           0
<weights>
0.10333E+02
</weights>
</event>
<event>
     15  10001  1.35417E+01  8.15403E+01 -1.00000E+00  3.92046E-01
      21    -1     0     0   502   501  0.000000000E+00  0.000000000E+00  2.226998844E+02  2.226998844E+02  0.000000000E+00  0.00000E+00  9.000E+00
       1    -1     0     0   507     0  0.000000000E+00  0.000000000E+00 -4.915240092E+02  4.915240092E+02  0.000000000E+00  0.00000E+00  9.000E+00
      -6     2     1     2     0   501 -5.590724287E+01 -7.014243398E+01 -7.879380495E+01  2.098069754E+02  1.725251354E+02  0.00000E+00  9.000E+00
       6     2     1     2   507     0  1.271592474E+02  1.097905487E+02  5.395126013E+01  2.471702807E+02  1.730865981E+02  0.00000E+00  9.000E+00
     -24     2     3     3     0     0 -1.962024795E+01 -2.961350407E+01  2.147340619E+01  9.517125359E+01  8.564196742E+01  0.00000E+00  9.000E+00
      24     2     4     4     0     0  7.321763581E+01  7.885312144E+01 -1.840919603E+01  1.355143446E+02  8.029073501E+01  0.00000E+00  9.000E+00
     -11     1     6     6     0     0  2.457699126E+01  2.814278824E+00  2.515995906E+01  3.528416366E+01  6.743495762E-07  0.00000E+00  9.000E+00
      12     1     6     6     0     0  4.864064455E+01  7.603884261E+01 -4.356915509E+01  1.002301809E+02  0.000000000E+00  0.00000E+00  9.000E+00
      13     1     5     5     0     0 -4.943334324E+01 -1.508312537E+01 -6.098318433E+00  5.204176768E+01  8.041106202E-07  0.00000E+00  9.000E+00
     -14     1     5     5     0     0  2.981309530E+01 -1.453037870E+01  2.757172462E+01  4.312948591E+01  1.261592536E-06  0.00000E+00  9.000E+00
       5     1     4     4   512     0 -1.745994964E+00 -7.786296884E-01  3.913593523E+01  3.946946527E+01  4.750000000E+00  0.00000E+00  9.000E+00
      -5     1     3     3     0   511 -3.392499847E+01 -3.909810028E+01 -9.844746542E+01  1.113284910E+02  4.750000000E+00  0.00000E+00  9.000E+00
       1     1     1     2   502     0 -7.125200454E+01 -3.964811468E+01 -2.439815800E+02  2.572466375E+02  3.814697266E-06  0.00000E+00  9.000E+00
      21     1     4     4   507   512  5.568760656E+01  3.171605691E+01  3.322452093E+01  7.218647090E+01  2.078484985E-06  0.00000E+00  9.000E+00
      21     1     3     3   511   501 -2.361996455E+00 -1.430829635E+00 -1.819745714E+00  3.307230739E+00  4.214684851E-08  0.00000E+00  9.000E+00
#rwgt            1          17   6.6848629250734648                1      163742           0
<weights>
-.12384E+02
</weights>
</event>
<event>
     15  10001  1.35417E+01  2.27315E+01 -1.00000E+00  2.24409E-01
      -2    -1     0     0     0   501  0.000000000E+00  0.000000000E+00  5.279073660E+02  5.279073660E+02  0.000000000E+00  0.00000E+00  9.000E+00
      21    -1     0     0   501   502  0.000000000E+00  0.000000000E+00 -3.373601561E+02  3.373601561E+02  0.000000000E+00  0.00000E+00  9.000E+00
      -6     2     1     2     0   502  1.249120702E+02 -3.361323254E+02  1.548624767E+02  4.276830403E+02  1.741907886E+02  0.00000E+00  9.000E+00
       6     2     1     2   507     0 -1.029089467E+02  3.304240589E+02 -1.143816308E+01  3.852653734E+02  1.689031271E+02  0.00000E+00  9.000E+00
     -24     2     3     3     0     0  1.128083607E+02 -3.157278396E+02  1.775120075E+02  3.878340658E+02  8.059128296E+01  0.00000E+00  9.000E+00
      24     2     4     4     0     0  1.286707921E+01  1.196549477E+02 -2.448565258E+00  1.441518140E+02  7.931507917E+01  0.00000E+00  9.000E+00
     -11     1     6     6     0     0 -2.231050421E+01  1.391146622E+01  1.660022975E+01  3.109429398E+01  1.143415337E-06  0.00000E+00  9.000E+00
      12     1     6     6     0     0  3.517758342E+01  1.057434815E+02 -1.904879501E+01  1.130575201E+02  2.050954167E-06  0.00000E+00  9.000E+00
      13     1     5     5     0     0  3.619145630E+01 -1.738717620E+02  5.691221329E+01  1.864945338E+02  2.939421655E-06  0.00000E+00  9.000E+00
     -14     1     5     5     0     0  7.661690438E+01 -1.418560776E+02  1.205997942E+02  2.013395321E+02  4.672030912E-06  0.00000E+00  9.000E+00
       5     1     4     4   512     0 -1.159326058E+02  2.089394447E+02 -9.573248720E+00  2.391866849E+02  4.750000000E+00  0.00000E+00  9.000E+00
      -5     1     3     3     0   511  1.330707362E+01 -1.865160326E+01 -2.656044773E+01  3.539746313E+01  4.750000000E+00  0.00000E+00  9.000E+00
      -2     1     1     2     0   507 -2.200312348E+01  5.708266502E+00  4.712289631E+01  5.231910842E+01  6.743495762E-07  0.00000E+00  9.000E+00
      21     1     3     3   511   502 -1.203364142E+00 -1.752882563E+00  3.910916858E+00  4.451511339E+00  5.960464478E-08  0.00000E+00  9.000E+00
      21     1     4     4   507   512  1.565798947E-01  1.829666520E+00  5.836509031E-01  1.926874467E+00  2.235174179E-08  0.00000E+00  9.000E+00
#rwgt            1          17   9.0220020524928195                1      201155           0
<weights>
0.16310E+02
</weights>
</event>
<event>
     14  10001  1.35417E+01  1.48258E+01 -1.00000E+00  2.69814E-01
      21    -1     0     0   507   511  0.000000000E+00  0.000000000E+00  1.049476309E+02  1.049476309E+02  0.000000000E+00  0.00000E+00  9.000E+00
      21    -1     0     0   501   502  0.000000000E+00  0.000000000E+00 -1.241937910E+03  1.241937910E+03  0.000000000E+00  0.00000E+00  9.000E+00
      -6     2     1     2     0   502  1.674767116E+02 -5.783840413E+00 -1.025212943E+03  1.053207954E+03  1.735036416E+02  0.00000E+00  9.000E+00
       6     2     1     2   507     0 -1.527713395E+02  7.669702650E+00 -1.340386487E+02  2.669311766E+02  1.728814251E+02  0.00000E+00  9.000E+00
     -24     2     3     3     0     0  1.492632795E+02 -5.709290883E+01 -6.588875072E+02  6.826461164E+02  7.958546523E+01  0.00000E+00  9.000E+00
      24     2     4     4     0     0 -4.785308427E+01 -9.020332071E+00  1.537765423E+00  9.462353275E+01  8.111697827E+01  0.00000E+00  9.000E+00
     -11     1     6     6     0     0 -5.159905688E+01 -2.481687345E+01 -2.582164408E+01  6.281000861E+01  3.090257978E-06  0.00000E+00  9.000E+00
      12     1     6     6     0     0  3.745972612E+00  1.579654138E+01  2.735940950E+01  3.181352415E+01  1.348699152E-06  0.00000E+00  9.000E+00
      13     1     5     5     0     0  1.401375971E+01 -3.186280477E+01 -7.375533975E+01  8.155656890E+01  0.000000000E+00  0.00000E+00  9.000E+00
     -14     1     5     5     0     0  1.352495198E+02 -2.523010406E+01 -5.851321674E+02  6.010895475E+02  7.629394531E-06  0.00000E+00  9.000E+00
       5     1     4     4   507     0 -1.049182553E+02  1.669003472E+01 -1.355764141E+02  1.723076438E+02  4.750000000E+00  0.00000E+00  9.000E+00
      -5     1     3     3     0   512  1.966955677E+01  4.885202353E+01 -3.409019843E+02  3.449784588E+02  4.750000000E+00  0.00000E+00  9.000E+00
      21     1     1     2   501   511 -1.470537210E+01 -1.885862237E+00  2.226131257E+01  2.674641064E+01  6.307962682E-07  0.00000E+00  9.000E+00
      21     1     3     3   512   502 -1.456124655E+00  2.457044893E+00 -2.542345197E+01  2.558337896E+01  5.840038640E-07  0.00000E+00  9.000E+00
#rwgt            1          17   6.0866164216424830                1      223659           0
<weights>
0.23139E+02
</weights>
</event>
<event>
     14  10001  1.35417E+01  1.55403E+01 -1.00000E+00  7.52580E-01
      21    -1     0     0   512   501  0.000000000E+00  0.000000000E+00  2.816606617E+02  2.816606617E+02  0.000000000E+00  0.00000E+00  9.000E+00
      21    -1     0     0   507   502  0.000000000E+00  0.000000000E+00 -2.994239516E+02  2.994239516E+02  0.000000000E+00  0.00000E+00  9.000E+00
      -6     2     1     2     0   501 -1.441536061E+02  8.359158324E+01  1.415114688E+02  2.788101131E+02  1.730368991E+02  0.00000E+00  9.000E+00
       6     2     1     2   507     0  1.507547586E+02 -6.952293537E+01 -1.565429412E+02  2.864958787E+02  1.732447988E+02  0.00000E+00  9.000E+00
     -24     2     3     3     0     0 -1.526313031E+02  8.242738461E+01  6.560841737E+01  2.022786658E+02  8.075645967E+01  0.00000E+00  9.000E+00
      24     2     4     4     0     0  9.225492939E+01 -1.065682678E+02 -1.389103073E+02  2.129372575E+02  7.860301806E+01  0.00000E+00  9.000E+00
     -11     1     6     6     0     0  6.482630691E+01 -3.349948893E+01 -2.987879154E+01  7.885054223E+01  2.050954167E-06  0.00000E+00  9.000E+00
      12     1     6     6     0     0  2.742862248E+01 -7.306877892E+01 -1.090315157E+02  1.340867153E+02  4.672030912E-06  0.00000E+00  9.000E+00
      13     1     5     5     0     0 -4.254757953E+01  1.574451447E+01 -1.799270743E+01  4.880495652E+01  1.215700987E-06  0.00000E+00  9.000E+00
     -14     1     5     5     0     0 -1.100837236E+02  6.668287014E+01  8.360112481E+01  1.534737093E+02  2.336015456E-06  0.00000E+00  9.000E+00
       5     1     4     4   511     0  5.517731597E+01  3.821650196E+01 -1.447292970E+01  6.882634244E+01  4.750000000E+00  0.00000E+00  9.000E+00
      -5     1     3     3     0   501  8.477697089E+00  1.164198632E+00  7.590305146E+01  7.653144731E+01  4.750000000E+00  0.00000E+00  9.000E+00
      21     1     1     2   512   502 -6.601152519E+00 -1.406864788E+01 -2.731817487E+00  1.577862144E+01  3.237360862E-07  0.00000E+00  9.000E+00
      21     1     4     4   507   511  3.322513222E+00 -1.171169483E+00 -3.159704202E+00  4.732278807E+00  9.424321831E-08  0.00000E+00  9.000E+00
#rwgt            1          17   35.230930313254220                1      255902           0
<weights>
0.10406E+02
</weights>
</event>
<event>
     14  10001  1.35417E+01  3.67172E+01 -1.00000E+00  6.31397E-01
      21    -1     0     0   507   501  0.000000000E+00  0.000000000E+00  4.142647935E+02  4.142647935E+02  0.000000000E+00  0.00000E+00  9.000E+00
      -4    -1     0     0     0   502  0.000000000E+00  0.000000000E+00 -2.346196236E+02  2.346196236E+02  0.000000000E+00  0.00000E+00  9.000E+00
      -6     2     1     2     0   502 -1.586961876E+01 -1.475317139E+01  1.108219751E+02  2.060707784E+02  1.723779414E+02  0.00000E+00  9.000E+00
       6     2     1     2   507     0 -3.059691745E+00  4.621476611E+01  2.222722480E+02  2.850328962E+02  1.723184070E+02  0.00000E+00  9.000E+00
     -24     2     3     3     0     0 -4.677967386E+01  2.893244216E+01  7.726062420E+00  8.926250676E+01  6.987616888E+01  0.00000E+00  9.000E+00
      24     2     4     4     0     0  1.684485930E+01  1.368056088E+01  2.303629199E+02  2.457558402E+02  8.281274723E+01  0.00000E+00  9.000E+00
     -11     1     6     6     0     0  2.818012983E+01  3.566308604E+01  2.063028878E+02  2.112506969E+02  2.697398305E-06  0.00000E+00  9.000E+00
      12     1     6     6     0     0 -1.133527054E+01 -2.198252516E+01  2.406003208E+01  3.450514330E+01  4.768371582E-07  0.00000E+00  9.000E+00
      13     1     5     5     0     0 -2.881166339E+00  9.346936855E+00  3.337466502E+01  3.477836415E+01  6.743495762E-07  0.00000E+00  9.000E+00
     -14     1     5     5     0     0 -4.389850752E+01  1.958550531E+01 -2.564860260E+01  5.448414261E+01  1.261592536E-06  0.00000E+00  9.000E+00
       5     1     4     4   507     0 -1.990455104E+01  3.253420523E+01 -8.090671849E+00  3.927705606E+01  4.750000000E+00  0.00000E+00  9.000E+00
      -5     1     3     3     0   512  3.099158588E+01 -4.422508671E+01  1.027135260E+02  1.161420149E+02  4.750000000E+00  0.00000E+00  9.000E+00
      -4     1     1     2     0   501  1.892931051E+01 -3.146159472E+01 -1.534490532E+02  1.577807424E+02  5.046370146E-06  0.00000E+00  9.000E+00
      21     1     3     3   512   502 -8.153078388E-02  5.394731539E-01  3.823867111E-01  6.662568193E-01  1.825012075E-08  0.00000E+00  9.000E+00
#rwgt            1          17   11.117226141374639                1      296806           0
<weights>
0.18606E+02
</weights>
</event>
<event>
     15  10001 -1.35417E+01  8.62235E+01 -1.00000E+00  3.78820E-01
      21    -1     0     0   502   511  0.000000000E+00  0.000000000E+00  2.864737487E+02  2.864737487E+02  0.000000000E+00  0.00000E+00  9.000E+00
      21    -1     0     0   507   502  0.000000000E+00  0.000000000E+00 -5.618820769E+02  5.618820769E+02  0.000000000E+00  0.00000E+00  9.000E+00
      -6     2     1     2     0   501  2.814816493E+01  6.656933270E+01 -1.047528930E+02  2.147003417E+02  1.729140622E+02  0.00000E+00  9.000E+00
       6     2     1     2   507     0  5.619607682E+01 -8.447305791E+01 -3.674612839E+02  4.187903249E+02  1.733892861E+02  0.00000E+00  9.000E+00
     -24     2     3     3     0     0  7.439953593E+01  8.329569061E+01 -7.449934018E+01  1.566034954E+02  8.062902744E+01  0.00000E+00  9.000E+00
      24     2     4     4     0     0 -1.539294536E+01 -3.463778803E+01 -1.629706685E+02  1.852778224E+02  7.957206537E+01  0.00000E+00  9.000E+00
     -11     1     6     6     0     0 -2.771704949E+01 -3.244338989E+01 -3.106887657E+01  5.278336359E+01  8.259061849E-07  0.00000E+00  9.000E+00
      12     1     6     6     0     0  1.232410413E+01 -2.194398136E+00 -1.319017919E+02  1.324944589E+02  1.907348633E-06  0.00000E+00  9.000E+00
      13     1     5     5     0     0  6.830293423E+00  5.280257468E+01 -6.149339682E+01  8.134004336E+01  1.784161275E-06  0.00000E+00  9.000E+00
     -14     1     5     5     0     0  6.756924250E+01  3.049311593E+01 -1.300594336E+01  7.526345205E+01  1.420542632E-06  0.00000E+00  9.000E+00
       5     1     4     4   513     0  8.439989465E+01 -4.395870319E+01 -1.933326914E+02  2.155360802E+02  4.750000000E+00  0.00000E+00  9.000E+00
      -5     1     3     3     0   514 -3.968675410E+01 -1.301274443E+01 -2.624846638E+01  4.955718370E+01  4.750000000E+00  0.00000E+00  9.000E+00
      21     1     1     2   501   511 -8.434424175E+01  1.790372521E+01  1.968058487E+02  2.148651590E+02  5.394796609E-06  0.00000E+00  9.000E+00
      21     1     4     4   507   513 -1.281087248E+01 -5.876566694E+00 -1.115792407E+01  1.797642231E+01  5.462855929E-07  0.00000E+00  9.000E+00
      21     1     3     3   514   501 -6.564616895E+00 -3.713613476E+00 -4.005086446E+00  8.539662608E+00  2.795705652E-07  0.00000E+00  9.000E+00
#rwgt            1          17  -7.4389476502303653                1      344354           0
<weights>
-.14859E+02
</weights>
</event>
<event>
     15  10001  1.35417E+01  9.48539E+00 -1.00000E+00  2.21119E-01
      21    -1     0     0   507   501  0.000000000E+00  0.000000000E+00  2.798839381E+02  2.798839381E+02  0.000000000E+00  0.00000E+00  9.000E+00
       2    -1     0     0   501     0  0.000000000E+00  0.000000000E+00 -3.170597768E+02  3.170597768E+02  0.000000000E+00  0.00000E+00  9.000E+00
      -6     2     1     2     0   502  9.287203412E+01  5.908310729E+00 -4.800742524E+01  2.038136297E+02  1.748575417E+02  0.00000E+00  9.000E+00
       6     2     1     2   507     0 -8.570993112E+01  3.107600515E-01  1.565796915E+02  2.470736486E+02  1.708271031E+02  0.00000E+00  9.000E+00
     -24     2     3     3     0     0  8.845602064E+01 -5.468485006E+00 -9.524470286E+01  1.532588261E+02  8.100828631E+01  0.00000E+00  9.000E+00
      24     2     4     4     0     0 -1.157322244E+01  4.961725764E+01  1.127734388E+02  1.473300494E+02  7.995300632E+01  0.00000E+00  9.000E+00
     -11     1     6     6     0     0 -4.303620480E+01  3.850853739E+01  5.065579838E+01  7.681817679E+01  2.697398305E-06  0.00000E+00  9.000E+00
      12     1     6     6     0     0  3.146298236E+01  1.110872025E+01  6.211764045E+01  7.051187262E+01  2.023048729E-06  0.00000E+00  9.000E+00
      13     1     5     5     0     0  2.069480310E+01 -6.952394345E+00 -8.114478770E+01  8.403027569E+01  1.907348633E-06  0.00000E+00  9.000E+00
     -14     1     5     5     0     0  6.776121754E+01  1.483909339E+00 -1.409991517E+01  6.922855045E+01  1.305872339E-06  0.00000E+00  9.000E+00
       5     1     4     4   512     0 -6.187338400E+01 -3.960460166E+01  3.263483346E+01  8.052598943E+01  4.750000000E+00  0.00000E+00  9.000E+00
      -5     1     3     3     0   511  6.722566336E+00  5.828127404E+00  3.944894631E+01  4.071783187E+01  4.750000000E+00  0.00000E+00  9.000E+00
       2     1     1     2   502     0 -7.162103009E+00 -6.219070780E+00 -1.457481050E+02  1.460564366E+02  3.303624740E-06  0.00000E+00  9.000E+00
      21     1     3     3   511   502 -2.306552855E+00  5.548668331E+00  7.788331320E+00  9.836971641E+00  5.264139692E-07  0.00000E+00  9.000E+00
      21     1     4     4   507   512 -1.226332468E+01 -9.701895934E+00  1.117141922E+01  1.921760974E+01  2.384185791E-07  0.00000E+00  9.000E+00
#rwgt            1          17   16.590756184329109                1      368075           0
<weights>
0.25728E+02
</weights>
</event>
<event>
     15  10001  1.35417E+01  5.68969E+01 -1.00000E+00  2.09671E-01
      21    -1     0     0   507   511  0.000000000E+00  0.000000000E+00  1.443254932E+03  1.443254932E+03  0.000000000E+00  0.00000E+00  9.000E+00
      21    -1     0     0   501   502  0.000000000E+00  0.000000000E+00 -4.623152601E+01  4.623152601E+01  0.000000000E+00  0.00000E+00  9.000E+00
      -6     2     1     2     0   502 -2.722667902E+01  1.009463926E+02  7.076927273E+02  7.357520075E+02  1.719609082E+02  0.00000E+00  9.000E+00
       6     2     1     2   507     0  8.351846241E+01 -9.267013867E+01  3.564661438E+02  4.160421944E+02  1.745276703E+02  0.00000E+00  9.000E+00
     -24     2     3     3     0     0 -7.297679682E+00  1.303272353E+02  6.228227435E+02  6.416513466E+02  8.227901565E+01  0.00000E+00  9.000E+00
      24     2     4     4     0     0  7.606257459E+01 -1.204447332E+02  3.457269440E+02  3.825998746E+02  8.101293253E+01  0.00000E+00  9.000E+00
     -11     1     6     6     0     0  2.677354239E+01 -5.121218521E+00  1.320687913E+02  1.348525679E+02  2.697398305E-06  0.00000E+00  9.000E+00
      12     1     6     6     0     0  4.928903220E+01 -1.153235147E+02  2.136581527E+02  2.477473066E+02  7.136645101E-06  0.00000E+00  9.000E+00
      13     1     5     5     0     0  4.099494114E-01  5.728696625E+01  4.532524291E+02  4.568585438E+02  1.525878906E-05  0.00000E+00  9.000E+00
     -14     1     5     5     0     0 -7.707629093E+00  7.304026906E+01  1.695703144E+02  1.847928028E+02  4.672030912E-06  0.00000E+00  9.000E+00
       5     1     4     4   513     0  8.911693345E+00  2.809242147E+01  9.059185436E+00  3.119669475E+01  4.750000000E+00  0.00000E+00  9.000E+00
      -5     1     3     3     0   512 -2.329405892E+01 -2.512448518E+01  6.666325365E+01  7.510262861E+01  4.750000000E+00  0.00000E+00  9.000E+00
      21     1     1     2   501   511 -5.629178339E+01 -8.276253928E+00  3.328645346E+02  3.376922558E+02  0.000000000E+00  0.00000E+00  9.000E+00
      21     1     3     3   512   502  3.365059585E+00 -4.256357520E+00  1.820673018E+01  1.899803225E+01  2.384185791E-07  0.00000E+00  9.000E+00
      21     1     4     4   507   513 -1.455805523E+00 -3.178269048E-01  1.680014374E+00  2.245625071E+00  5.575503985E-08  0.00000E+00  9.000E+00
#rwgt            1          17   44.591871176144217                1      388575           0
<weights>
0.12571E+02
</weights>
</event>
<event>
     15  10001 -1.35417E+01  1.45226E+02 -1.00000E+00  1.92791E-01
      21    -1     0     0   512   501  0.000000000E+00  0.000000000E+00  4.370646972E+02  4.370646972E+02  0.000000000E+00  0.00000E+00  9.000E+00
      21    -1     0     0   507   502  0.000000000E+00  0.000000000E+00 -9.920637672E+02  9.920637672E+02  0.000000000E+00  0.00000E+00  9.000E+00
      -6     2     1     2     0   501 -7.395011560E+01 -3.657837450E+01  2.923023934E+02  3.495539719E+02  1.730337915E+02  0.00000E+00  9.000E+00
       6     2     1     2   507     0 -6.005913613E+01  9.254251856E+01  1.476538257E+01  2.053607247E+02  1.725798168E+02  0.00000E+00  9.000E+00
     -24     2     3     3     0     0 -8.738718539E+01  2.693738690E+01  2.057389530E+02  2.409536090E+02  8.583694952E+01  0.00000E+00  9.000E+00
      24     2     4     4     0     0 -3.449865533E+01  1.204981866E+02 -2.460365635E+01  1.502037154E+02  7.903066520E+01  0.00000E+00  9.000E+00
     -11     1     6     6     0     0  1.148231838E+01  6.043454916E+01  1.707064331E+01  6.384031038E+01  1.545128989E-06  0.00000E+00  9.000E+00
      12     1     6     6     0     0 -4.598097371E+01  6.006363741E+01 -4.167429965E+01  8.636340506E+01  1.907348633E-06  0.00000E+00  9.000E+00
      13     1     5     5     0     0 -2.193385294E+01 -1.905716838E+01  1.209147851E+02  1.243569653E+02  1.907348633E-06  0.00000E+00  9.000E+00
     -14     1     5     5     0     0 -6.545333245E+01  4.599455528E+01  8.482416793E+01  1.165966436E+02  2.697398305E-06  0.00000E+00  9.000E+00
       5     1     4     4   514     0 -1.547241013E+01 -1.559393309E+01  2.575568128E+01  3.418309293E+01  4.750000000E+00  0.00000E+00  9.000E+00
      -5     1     3     3     0   511  3.713799555E+00 -2.295443811E+01  2.806855810E+01  3.675738007E+01  4.750000000E+00  0.00000E+00  9.000E+00
      21     1     1     2   512   502  1.340092517E+02 -5.596414406E+01 -8.620668459E+02  8.742137678E+02  1.868812365E-05  0.00000E+00  9.000E+00
      21     1     3     3   511   501  9.723270233E+00 -4.056132329E+01  5.849488223E+01  7.184298281E+01  2.023048729E-06  0.00000E+00  9.000E+00
      21     1     4     4   507   514 -1.008807068E+01 -1.236173491E+01  1.361335763E+01  2.097391633E+01  5.840038640E-07  0.00000E+00  9.000E+00
#rwgt            1          17  -14.601634894422528                1      407938           0
<weights>
-.29037E+01
</weights>
</event>
<event>
     14  10001  1.35417E+01  1.71511E+01 -1.00000E+00  2.94879E-01
      21    -1     0     0   511   501  0.000000000E+00  0.000000000E+00  1.578531499E+03  1.578531499E+03  0.000000000E+00  0.00000E+00  9.000E+00
      21    -1     0     0   507   502  0.000000000E+00  0.000000000E+00 -3.854708219E+01  3.854708219E+01  0.000000000E+00  0.00000E+00  9.000E+00
      -6     2     1     2     0   501 -9.776293176E+01 -3.762273173E+01  1.358016088E+03  1.372936127E+03  1.725481242E+02  0.00000E+00  9.000E+00
       6     2     1     2   507     0  1.128851645E+02  4.571467209E+01  1.473955216E+02  2.055491842E+02  7.544624396E+01  0.00000E+00  9.000E+00
     -24     2     3     3     0     0 -7.165706145E+01  2.549075492E+00  1.237036791E+03  1.241682188E+03  7.983359180E+01  0.00000E+00  9.000E+00
      24     2     4     4     0     0  9.742004994E+01  4.116527360E+01  1.217609574E+02  1.748969383E+02  6.766064150E+01  0.00000E+00  9.000E+00
     -11     1     6     6     0     0  3.679030458E+01  4.741027442E+01  3.701136424E+01  7.050604027E+01  3.960906917E-06  0.00000E+00  9.000E+00
      12     1     6     6     0     0  6.062974536E+01 -6.245000820E+00  8.474959311E+01  1.043908980E+02  2.523185073E-06  0.00000E+00  9.000E+00
      13     1     5     5     0     0  2.656394440E+00 -1.557230604E+01  5.788648303E+02  5.790803441E+02  0.000000000E+00  0.00000E+00  9.000E+00
     -14     1     5     5     0     0 -7.431345589E+01  1.812138153E+01  6.581719605E+02  6.626018441E+02  1.078959322E-05  0.00000E+00  9.000E+00
       5     1     4     4   507     0  1.546511459E+01  4.549398486E+00  2.563456424E+01  3.065224591E+01  4.750000000E+00  0.00000E+00  9.000E+00
      -5     1     3     3     0   512 -2.275050766E+01 -4.038256921E+01  1.042219543E+02  1.141626723E+02  4.750000000E+00  0.00000E+00  9.000E+00
      21     1     1     2   511   502 -1.512223276E+01 -8.091940356E+00  3.457280726E+01  3.859326916E+01  4.768371582E-07  0.00000E+00  9.000E+00
      21     1     3     3   512   501 -3.355362655E+00  2.107619904E-01  1.675734245E+01  1.709126693E+01  3.371747881E-07  0.00000E+00  9.000E+00
#rwgt            1          17   2.3403495596666759                1      425073           0
<weights>
0.35577E+02
</weights>
</event>
<event>
     13  10001  1.35417E+01  7.96585E+00 -1.00000E+00  2.07914E-01
      21    -1     0     0   512   501  0.000000000E+00  0.000000000E+00  6.861202758E+01  6.861202758E+01  0.000000000E+00  0.00000E+00  9.000E+00
      21    -1     0     0   507   502  0.000000000E+00  0.000000000E+00 -7.742085807E+02  7.742085807E+02  0.000000000E+00  0.00000E+00  9.000E+00
      -6     2     1     2     0   501 -6.186156637E+00 -1.568653821E+01 -1.440033384E+02  2.257303671E+02  1.730112746E+02  0.00000E+00  9.000E+00
       6     2     1     2   507     0 -1.123443315E+00  1.252039125E+01 -5.755053527E+02  6.010589492E+02  1.729376394E+02  0.00000E+00  9.000E+00
     -24     2     3     3     0     0  4.483342601E+00 -9.584446692E+00 -1.746669420E+02  1.923553342E+02  7.987535295E+01  0.00000E+00  9.000E+00
      24     2     4     4     0     0  4.108098695E+01 -3.255681107E+00 -5.271474430E+02  5.347932090E+02  8.013178397E+01  0.00000E+00  9.000E+00
     -11     1     6     6     0     0 -1.155819601E+01 -1.395741583E+01 -3.288544861E+02  3.293534187E+02  7.629394531E-06  0.00000E+00  9.000E+00
      12     1     6     6     0     0  5.263918295E+01  1.070173473E+01 -1.982929569E+02  2.054397904E+02  4.672030912E-06  0.00000E+00  9.000E+00
      13     1     5     5     0     0  2.000544272E+01 -3.873263354E+01 -6.872049275E+01  8.138145220E+01  1.651812370E-06  0.00000E+00  9.000E+00
     -14     1     5     5     0     0 -1.552210012E+01  2.914818685E+01 -1.059464492E+02  1.109738820E+02  1.348699152E-06  0.00000E+00  9.000E+00
       5     1     4     4   507     0 -4.220443026E+01  1.577607235E+01 -4.835790970E+01  6.626574019E+01  4.750000000E+00  0.00000E+00  9.000E+00
      -5     1     3     3     0   501 -1.066949924E+01 -6.102091515E+00  3.066360359E+01  3.337503288E+01  4.750000000E+00  0.00000E+00  9.000E+00
      21     1     1     2   512   502  7.309599952E+00  3.166146959E+00  1.391213799E+01  1.603129195E+01  4.768371582E-07  0.00000E+00  9.000E+00
#rwgt            2         113   132.07524039091521                1      453421           0
<weights>
0.13542E+02
</weights>
</event>
<event>
     15  10001  1.35417E+01  4.19074E+01 -1.00000E+00  2.06680E-01
      21    -1     0     0   502   501  0.000000000E+00  0.000000000E+00  7.421062163E+01  7.421062163E+01  0.000000000E+00  0.00000E+00  9.000E+00
      21    -1     0     0   507   511  0.000000000E+00  0.000000000E+00 -1.113113808E+03  1.113113808E+03  0.000000000E+00  0.00000E+00  9.000E+00
      -6     2     1     2     0   501 -2.500441178E+01 -1.138641888E+02 -1.437459257E+02  2.533643660E+02  1.730327620E+02  0.00000E+00  9.000E+00
       6     2     1     2   507     0  6.680445425E+01  1.168619565E+02 -6.873163177E+02  7.219362732E+02  1.751248409E+02  0.00000E+00  9.000E+00
     -24     2     3     3     0     0  5.253817455E+00 -9.415700528E+01 -2.667157337E+01  1.267552632E+02  8.038892754E+01  0.00000E+00  9.000E+00
      24     2     4     4     0     0  6.628170954E+01  3.952098219E+00 -3.703476964E+02  3.853952374E+02  8.344572292E+01  0.00000E+00  9.000E+00
     -11     1     6     6     0     0  1.765925658E+00  7.398041563E+00  1.688308213E+00  7.791013864E+00  9.942547868E-07  0.00000E+00  9.000E+00
      12     1     6     6     0     0  6.451578389E+01 -3.445943345E+00 -3.720360046E+02  3.776042235E+02  9.344061824E-06  0.00000E+00  9.000E+00
      13     1     5     5     0     0  3.925702003E+00 -3.342872707E+01  2.894827242E+01  4.439474525E+01  7.539457465E-07  0.00000E+00  9.000E+00
     -14     1     5     5     0     0  1.328115452E+00 -6.072827821E+01 -5.561984579E+01  8.236051791E+01  9.536743164E-07  0.00000E+00  9.000E+00
       5     1     4     4   512     0 -8.029398367E-01  1.002601964E+02 -2.818563513E+02  2.991961179E+02  4.750000000E+00  0.00000E+00  9.000E+00
      -5     1     3     3     0   513 -3.194603721E+01 -1.912088702E+01 -1.185135324E+02  1.243148321E+02  4.750000000E+00  0.00000E+00  9.000E+00
      21     1     1     2   502   511 -4.180004246E+01 -2.997767744E+00 -2.078409433E+02  2.120237908E+02  0.000000000E+00  0.00000E+00  9.000E+00
      21     1     3     3   513   501  1.687807968E+00 -5.862964531E-01  1.439180041E+00  2.294270790E+00  7.884953353E-08  0.00000E+00  9.000E+00
      21     1     4     4   507   512  1.325684537E+00  1.264966193E+01 -3.511227006E+01  3.734491793E+01  6.743495762E-07  0.00000E+00  9.000E+00
#rwgt            1          17   8.9341405507300777                1      457795           0
<weights>
0.25052E+02
</weights>
</event>
<event>
     15  10001  1.35417E+01  5.76320E+01 -1.00000E+00  2.59155E-01
      21    -1     0     0   502   512  0.000000000E+00  0.000000000E+00  1.155007171E+02  1.155007171E+02  0.000000000E+00  0.00000E+00  9.000E+00
      21    -1     0     0   507   502  0.000000000E+00  0.000000000E+00 -1.742469031E+03  1.742469031E+03  0.000000000E+00  0.00000E+00  9.000E+00
      -6     2     1     2     0   501  2.087012711E+02 -1.163197322E+02 -1.494096010E+02  3.377721072E+02  1.862263860E+02  0.00000E+00  9.000E+00
       6     2     1     2   507     0 -1.776483294E+02  6.776912332E+01 -8.020515115E+02  8.422364134E+02  1.729854504E+02  0.00000E+00  9.000E+00
     -24     2     3     3     0     0  2.111380014E+02 -5.935180097E+01 -1.525109708E+02  2.794938970E+02  8.219093840E+01  0.00000E+00  9.000E+00
      24     2     4     4     0     0 -1.499483851E+01  1.530635399E+01 -1.919708831E+02  2.086071748E+02  7.877184634E+01  0.00000E+00  9.000E+00
     -11     1     6     6     0     0 -8.353251398E+00  3.532343608E+01 -3.567324707E+01  5.089304964E+01  8.259061849E-07  0.00000E+00  9.000E+00
      12     1     6     6     0     0 -6.641587110E+00 -2.001708209E+01 -1.562976360E+02  1.577141251E+02  5.722045898E-06  0.00000E+00  9.000E+00
      13     1     5     5     0     0  7.677886194E+01 -3.822383351E+01 -1.046558605E+02  1.353103995E+02  3.568322551E-06  0.00000E+00  9.000E+00
     -14     1     5     5     0     0  1.343591394E+02 -2.112796746E+01 -4.785511025E+01  1.441834974E+02  9.172145873E-06  0.00000E+00  9.000E+00
       5     1     4     4   513     0 -1.572673845E+02  4.958271818E+01 -5.849292802E+02  6.077469058E+02  4.750000000E+00  0.00000E+00  9.000E+00
      -5     1     3     3     0   511 -1.812535482E+00 -5.280062411E+01 -2.213570311E-03  5.304482724E+01  4.750000000E+00  0.00000E+00  9.000E+00
      21     1     1     2   501   512 -3.105294178E+01  4.855060884E+01 -6.755072016E+02  6.779612276E+02  1.321449896E-05  0.00000E+00  9.000E+00
      21     1     3     3   511   501 -6.241947410E-01 -4.167307076E+00  3.103583348E+00  5.233382935E+00  3.793216366E-07  0.00000E+00  9.000E+00
      21     1     4     4   507   513 -5.386106331E+00  2.880051155E+00 -2.515134826E+01  2.588233288E+01  3.371747881E-07  0.00000E+00  9.000E+00
#rwgt            1          17   37.859093474839327                1      480816           0
<weights>
0.13450E+02
</weights>
</event>
<event>
     15  10001  1.35417E+01  8.11492E+01 -1.00000E+00  4.24033E-01
      21    -1     0     0   507   501  0.000000000E+00  0.000000000E+00  1.521711388E+03  1.521711388E+03  0.000000000E+00  0.00000E+00  9.000E+00
       2    -1     0     0   501     0  0.000000000E+00  0.000000000E+00 -3.800233335E+01  3.800233335E+01  0.000000000E+00  0.00000E+00  9.000E+00
      -6     2     1     2     0   502  2.919897141E+01 -3.176647606E+01  5.250708065E+02  5.543623312E+02  1.725008796E+02  0.00000E+00  9.000E+00
       6     2     1     2   507     0 -8.943798513E+01  8.613982805E+01  7.921707998E+02  8.201579466E+02  1.723521343E+02  0.00000E+00  9.000E+00
     -24     2     3     3     0     0 -3.110004629E+01 -6.255958456E+01  3.681253521E+02  3.832792158E+02  8.065834033E+01  0.00000E+00  9.000E+00
      24     2     4     4     0     0 -6.888234865E+01  1.265214500E+02  6.327739591E+02  6.540611809E+02  8.149042785E+01  0.00000E+00  9.000E+00
     -11     1     6     6     0     0  1.477970704E+01  2.293266688E+01  5.845205184E+01  6.450573087E+01  1.651812370E-06  0.00000E+00  9.000E+00
      12     1     6     6     0     0 -8.366205569E+01  1.035887831E+02  5.743219072E+02  5.895554500E+02  1.078959322E-05  0.00000E+00  9.000E+00
      13     1     5     5     0     0 -1.713709451E+01 -1.641908321E+01  2.933689280E+02  2.943273589E+02  6.607249480E-06  0.00000E+00  9.000E+00
     -14     1     5     5     0     0 -1.396295178E+01 -4.614050135E+01  7.475642415E+01  8.895185686E+01  3.568322551E-06  0.00000E+00  9.000E+00
       5     1     4     4   512     0 -1.188429984E+01 -3.241078227E+01  1.230798677E+02  1.279175974E+02  4.750000000E+00  0.00000E+00  9.000E+00
      -5     1     3     3     0   511  5.520190903E+01  2.930293674E+01  1.418321610E+02  1.550639780E+02  4.750000000E+00  0.00000E+00  9.000E+00
       2     1     1     2   502     0  6.023901372E+01 -5.437335199E+01  1.664674489E+02  1.851934440E+02  1.907348633E-06  0.00000E+00  9.000E+00
      21     1     4     4   507   512 -8.671336649E+00 -7.970839675E+00  3.631697307E+01  3.817916837E+01  4.768371582E-07  0.00000E+00  9.000E+00
      21     1     3     3   511   502  5.097108671E+00  1.490171761E+00  1.511329331E+01  1.601913741E+01  0.000000000E+00  0.00000E+00  9.000E+00
#rwgt            1          17   16.160495397121078                1      519668           0
<weights>
0.14210E+02
</weights>
</event>
<event>
     13  10001  1.35417E+01  2.26550E+01 -1.00000E+00  1.62023E-01
      21    -1     0     0   502   511  0.000000000E+00  0.000000000E+00  5.055977225E+02  5.055977225E+02  0.000000000E+00  0.00000E+00  9.000E+00
      21    -1     0     0   507   502  0.000000000E+00  0.000000000E+00 -3.977130924E+02  3.977130924E+02  0.000000000E+00  0.00000E+00  9.000E+00
      -6     2     1     2     0   501 -2.363763193E+02  1.463744047E+02  1.279968037E+02  3.515701011E+02  1.729714530E+02  0.00000E+00  9.000E+00
       6     2     1     2   507     0  2.565888633E+02 -1.566068108E+02 -1.797617313E+02  3.904917438E+02  1.726440963E+02  0.00000E+00  9.000E+00
     -24     2     3     3     0     0 -4.871092701E+01  2.512321546E+01  7.231061581E+01  1.212579990E+02  8.044095219E+01  0.00000E+00  9.000E+00
      24     2     4     4     0     0  1.834075188E+02 -4.395949715E+01 -6.840164288E+01  2.159392925E+02  7.987639181E+01  0.00000E+00  9.000E+00
     -11     1     6     6     0     0  5.752479293E+01 -2.144556336E+01  1.508625585E+01  6.321874014E+01  9.536743164E-07  0.00000E+00  9.000E+00
      12     1     6     6     0     0  1.258827259E+02 -2.251393379E+01 -8.348789873E+01  1.527205524E+02  4.573661350E-06  0.00000E+00  9.000E+00
      13     1     5     5     0     0 -4.097964360E+01  2.347844809E+01  9.013536550E+01  1.017592887E+02  2.523185073E-06  0.00000E+00  9.000E+00
     -14     1     5     5     0     0 -7.731283406E+00  1.644767369E+00 -1.782474968E+01  1.949871032E+01  5.331201500E-07  0.00000E+00  9.000E+00
       5     1     4     4   507     0  7.318134451E+01 -1.126473136E+02 -1.113600884E+02  1.745524513E+02  4.750000000E+00  0.00000E+00  9.000E+00
      -5     1     3     3     0   501 -1.876653923E+02  1.212511892E+02  5.568618785E+01  2.303121021E+02  4.750000000E+00  0.00000E+00  9.000E+00
      21     1     1     2   501   511 -2.021254400E+01  1.023240609E+01  1.596495577E+02  1.612489700E+02  1.907348633E-06  0.00000E+00  9.000E+00
#rwgt            2         113  0.27812903285327673                1      570123           0
<weights>
0.13542E+02
</weights>
</event>
<event>
     15  10001  1.35417E+01  3.03761E+01 -1.00000E+00  2.38117E-01
      21    -1     0     0   502   512  0.000000000E+00  0.000000000E+00  3.001328657E+02  3.001328657E+02  0.000000000E+00  0.00000E+00  9.000E+00
      21    -1     0     0   507   502  0.000000000E+00  0.000000000E+00 -1.827712420E+02  1.827712420E+02  0.000000000E+00  0.00000E+00  9.000E+00
      -6     2     1     2     0   501 -9.024390739E+01 -8.418619155E+01  1.959917659E+01  2.135571474E+02  1.731798194E+02  0.00000E+00  9.000E+00
       6     2     1     2   507     0  1.159969500E+02  6.807762568E+01  7.550531549E+01  2.316894908E+02  1.728846782E+02  0.00000E+00  9.000E+00
     -24     2     3     3     0     0 -1.111554707E+02 -2.046789702E+01 -1.187154301E+01  1.380097517E+02  7.830251940E+01  0.00000E+00  9.000E+00
      24     2     4     4     0     0  7.376913565E+01 -2.708794937E+01  4.798606053E+01  1.235766667E+02  8.241897940E+01  0.00000E+00  9.000E+00
     -11     1     6     6     0     0  2.563639821E+01  1.532538823E+01  5.127414608E+01  5.933911437E+01  6.743495762E-07  0.00000E+00  9.000E+00
      12     1     6     6     0     0  4.813273744E+01 -4.241333759E+01 -3.288085554E+00  6.423755230E+01  2.101433583E-06  0.00000E+00  9.000E+00
      13     1     5     5     0     0 -1.547383945E+01 -2.668863752E+01 -2.693036950E+01  4.095079830E+01  2.023048729E-06  0.00000E+00  9.000E+00
     -14     1     5     5     0     0 -9.568163129E+01  6.220740500E+00  1.505882649E+01  9.705895339E+01  4.139841879E-06  0.00000E+00  9.000E+00
       5     1     4     4   513     0  3.888485848E+01  8.987665414E+01  2.760634877E+01  1.018553787E+02  4.750000000E+00  0.00000E+00  9.000E+00
      -5     1     3     3     0   511  1.840895385E+01 -5.569815736E+01  3.224904607E+01  6.710989336E+01  4.750000000E+00  0.00000E+00  9.000E+00
      21     1     1     2   501   512 -2.575304257E+01  1.610856587E+01  2.225713157E+01  3.765746941E+01  5.840038640E-07  0.00000E+00  9.000E+00
      21     1     3     3   511   501  2.502609495E+00 -8.020137175E+00 -7.783264650E-01  8.437502396E+00  1.893679057E-07  0.00000E+00  9.000E+00
      21     1     4     4   507   513  3.342955833E+00  5.288920902E+00 -8.709380701E-02  6.257445432E+00  5.292174460E-08  0.00000E+00  9.000E+00
#rwgt            1          17   35.154320785188226                1      576129           0
<weights>
0.14568E+02
</weights>
</event>
<event>
     15  10001  1.35417E+01  1.67043E+01 -1.00000E+00  1.83305E-01
      21    -1     0     0   507   501  0.000000000E+00  0.000000000E+00  2.247963763E+02  2.247963763E+02  0.000000000E+00  0.00000E+00  9.000E+00
      21    -1     0     0   511   502  0.000000000E+00  0.000000000E+00 -1.758488757E+03  1.758488757E+03  0.000000000E+00  0.00000E+00  9.000E+00
      -6     2     1     2     0   502 -7.745041357E+01 -6.709820952E+01 -1.687012801E+03  1.699067984E+03  1.741237638E+02  0.00000E+00  9.000E+00
       6     2     1     2   507     0  7.807160466E+01  8.379100076E+01  1.643484611E+02  2.642008353E+02  1.722659497E+02  0.00000E+00  9.000E+00
     -24     2     3     3     0     0 -5.250401629E+01 -4.888991322E+01 -5.218967247E+02  5.329086997E+02  8.042757993E+01  0.00000E+00  9.000E+00
      24     2     4     4     0     0  2.858324393E+01  1.291221878E+01  9.932714985E+00  8.712626388E+01  8.067589356E+01  0.00000E+00  9.000E+00
     -11     1     6     6     0     0  3.588010811E+01  3.309999538E+01  3.036608060E+01  5.748991827E+01  2.078484985E-06  0.00000E+00  9.000E+00
      12     1     6     6     0     0 -7.296864176E+00 -2.018777660E+01 -2.043336561E+01  2.963634561E+01  2.384185791E-07  0.00000E+00  9.000E+00
      13     1     5     5     0     0  9.593036123E+00  9.833407211E+00 -2.336745263E+01  2.710645830E+01  1.215700987E-06  0.00000E+00  9.000E+00
     -14     1     5     5     0     0 -6.209705241E+01 -5.872332043E+01 -4.985292721E+02  5.058022414E+02  1.525878906E-05  0.00000E+00  9.000E+00
       5     1     4     4   514     0  4.618735415E+01  6.450615879E+01  1.424032141E+02  1.630814339E+02  4.750000000E+00  0.00000E+00  9.000E+00
      -5     1     3     3     0   512 -2.857645645E+01 -1.360929891E+01 -1.136448349E+03  1.136898957E+03  4.750000000E+00  0.00000E+00  9.000E+00
      21     1     1     2   511   501 -6.211910905E-01 -1.669279124E+01 -1.102804025E+01  2.001631408E+01  2.665600750E-07  0.00000E+00  9.000E+00
      21     1     3     3   512   502  3.630059169E+00 -4.598997393E+00 -2.866772765E+01  2.926032664E+01  3.371747881E-07  0.00000E+00  9.000E+00
      21     1     4     4   507   514  3.301006572E+00  6.372623194E+00  1.201253210E+01  1.399313754E+01  5.591411304E-07  0.00000E+00  9.000E+00
#rwgt            1          17   317.25874232671464                1      601831           0
<weights>
-.45947E+00
</weights>
</event>
<event>
     15  10001  1.35417E+01  5.61195E+01 -1.00000E+00  2.04169E-01
      21    -1     0     0   512   501  0.000000000E+00  0.000000000E+00  2.145903180E+02  2.145903180E+02  0.000000000E+00  0.00000E+00  9.000E+00
      21    -1     0     0   507   502  0.000000000E+00  0.000000000E+00 -7.513241092E+02  7.513241092E+02  0.000000000E+00  0.00000E+00  9.000E+00
      -6     2     1     2     0   501 -8.635153698E+01 -5.738932627E+01 -7.865665060E+01  2.160150219E+02  1.724108416E+02  0.00000E+00  9.000E+00
       6     2     1     2   507     0  4.634201999E+01  1.803657976E+01 -5.832483001E+02  6.127235355E+02  1.810487514E+02  0.00000E+00  9.000E+00
     -24     2     3     3     0     0 -6.959734816E+01  1.960240885E+01 -7.773734648E+01  1.329372513E+02  8.000732745E+01  0.00000E+00  9.000E+00
      24     2     4     4     0     0  1.248857592E+01  8.118265116E+01 -3.804127765E+02  3.973440001E+02  8.013604997E+01  0.00000E+00  9.000E+00
     -11     1     6     6     0     0 -3.167704513E+01  5.125529511E+01 -2.295318859E+02  2.373087169E+02  3.814697266E-06  0.00000E+00  9.000E+00
      12     1     6     6     0     0  4.416562104E+01  2.992735605E+01 -1.508808906E+02  1.600352832E+02  4.264961200E-06  0.00000E+00  9.000E+00
      13     1     5     5     0     0 -8.738645133E+01  1.651548565E+01 -5.793507471E+01  1.061396534E+02  3.932099939E-06  0.00000E+00  9.000E+00
     -14     1     5     5     0     0  1.778910317E+01  3.086923203E+00 -1.980227177E+01  2.679759791E+01  4.768371582E-07  0.00000E+00  9.000E+00
       5     1     4     4   513     0  3.197642594E+01 -6.117486591E+01 -1.989267876E+02  2.106164414E+02  4.750000000E+00  0.00000E+00  9.000E+00
      -5     1     3     3     0   511 -2.073246601E+01 -7.607144219E+01 -9.262264473E-01  7.899442930E+01  4.750000000E+00  0.00000E+00  9.000E+00
      21     1     1     2   512   502  4.000951699E+01  3.935274651E+01  1.251711595E+02  1.371758699E+02  3.015782986E-06  0.00000E+00  9.000E+00
      21     1     3     3   511   501  3.978277196E+00 -9.202929248E-01  6.922323315E-03  4.083341332E+00  1.788583993E-07  0.00000E+00  9.000E+00
      21     1     4     4   507   513  1.877018137E+00 -1.971205492E+00 -3.908735931E+00  4.763094032E+00  5.960464478E-08  0.00000E+00  9.000E+00
#rwgt            1          17   29.808055442207905                1      625242           0
<weights>
0.12218E+02
</weights>
</event>
<event>
     14  10001  1.35417E+01  1.31215E+01 -1.00000E+00  1.95634E-01
      21    -1     0     0   507   511  0.000000000E+00  0.000000000E+00  2.399410667E+02  2.399410667E+02  0.000000000E+00  0.00000E+00  9.000E+00
      21    -1     0     0   501   502  0.000000000E+00  0.000000000E+00 -3.358363667E+02  3.358363667E+02  0.000000000E+00  0.00000E+00  9.000E+00
      -6     2     1     2     0   502 -5.065167552E+01 -1.244066121E+01 -2.647233886E+02  2.998990974E+02  1.309222436E+02  0.00000E+00  9.000E+00
       6     2     1     2   507     0  3.944027570E+01  5.623173296E+00  9.500972970E+01  2.009028483E+02  1.724759412E+02  0.00000E+00  9.000E+00
     -24     2     3     3     0     0 -5.143560095E+01 -1.844071153E+01 -1.194997018E+02  1.541843453E+02  8.066568497E+01  0.00000E+00  9.000E+00
      24     2     4     4     0     0 -6.983832065E-01  5.449874013E+01  9.550041328E+01  1.374778041E+02  8.251798140E+01  0.00000E+00  9.000E+00
     -11     1     6     6     0     0 -2.734476049E+01  4.233929519E+01  1.620031325E+01  5.294149595E+01  1.348699152E-06  0.00000E+00  9.000E+00
      12     1     6     6     0     0  2.664637729E+01  1.215944494E+01  7.930010003E+01  8.453630810E+01  1.348699152E-06  0.00000E+00  9.000E+00
      13     1     5     5     0     0 -6.995140536E+01 -1.096563466E+01 -6.490481160E+01  9.605247953E+01  2.336015456E-06  0.00000E+00  9.000E+00
     -14     1     5     5     0     0  1.851580441E+01 -7.475076873E+00 -5.459489016E+01  5.813186578E+01  9.536743164E-07  0.00000E+00  9.000E+00
       5     1     4     4   507     0  4.013865890E+01 -4.887556683E+01 -4.906835772E-01  6.342504428E+01  4.750000000E+00  0.00000E+00  9.000E+00
      -5     1     3     3     0   512  3.859483241E+00  2.285592279E+00 -5.997752484E+01  6.033229259E+01  4.750000000E+00  0.00000E+00  9.000E+00
      21     1     1     2   501   511  1.121139982E+01  6.817487914E+00  7.381835899E+01  7.497548767E+01  1.348699152E-06  0.00000E+00  9.000E+00
      21     1     3     3   512   502 -3.075557813E+00  3.714458040E+00 -8.524616202E+01  8.538245952E+01  1.348699152E-06  0.00000E+00  9.000E+00
#rwgt            1          17   249.98428147126452                1      650630           0
<weights>
0.15058E+02
</weights>
</event>
<event>
     14  10001 -1.35417E+01  2.98423E+01 -1.00000E+00  1.71376E-01
      21    -1     0     0   502   512  0.000000000E+00  0.000000000E+00  8.475937933E+02  8.475937933E+02  0.000000000E+00  0.00000E+00  9.000E+00
      21    -1     0     0   507   502  0.000000000E+00  0.000000000E+00 -3.141460030E+02  3.141460030E+02  0.000000000E+00  0.00000E+00  9.000E+00
      -6     2     1     2     0   501  2.300931773E+02 -1.058616030E+02 -1.875698159E+02  3.589599289E+02  1.718145672E+02  0.00000E+00  9.000E+00
       6     2     1     2   507     0 -2.061230554E+02  8.808528429E+01  4.587506882E+02  5.388205893E+02  1.721328043E+02  0.00000E+00  9.000E+00
     -24     2     3     3     0     0  1.460894381E+02 -2.250575368E+01 -1.630072676E+02  2.342029587E+02  8.019366371E+01  0.00000E+00  9.000E+00
      24     2     4     4     0     0 -1.338485975E+02  8.021841145E+01  4.225218007E+02  4.574536444E+02  7.992949450E+01  0.00000E+00  9.000E+00
     -11     1     6     6     0     0 -5.200948783E+01 -9.421461322E+00  1.057604728E+02  1.182329411E+02  2.336015456E-06  0.00000E+00  9.000E+00
      12     1     6     6     0     0 -8.183910970E+01  8.963987277E+01  3.167613279E+02  3.392207033E+02  6.607249480E-06  0.00000E+00  9.000E+00
      13     1     5     5     0     0  4.020076010E+01  4.745920016E+00 -3.247537743E+00  4.060999103E+01  7.771494872E-07  0.00000E+00  9.000E+00
     -14     1     5     5     0     0  1.058886780E+02 -2.725167369E+01 -1.597597299E+02  1.935929677E+02  7.864199878E-06  0.00000E+00  9.000E+00
       5     1     4     4   507     0 -7.227445783E+01  7.866872839E+00  3.622888748E+01  8.136694495E+01  4.750000000E+00  0.00000E+00  9.000E+00
      -5     1     3     3     0   511  8.202910964E+01 -6.763726342E+01 -2.019069228E+01  1.083226698E+02  4.750000000E+00  0.00000E+00  9.000E+00
      21     1     1     2   501   512 -2.397012190E+01  1.777631872E+01  2.622669180E+02  2.639592781E+02  3.814697266E-06  0.00000E+00  9.000E+00
      21     1     3     3   511   501  1.974629534E+00 -1.571858591E+01 -4.371855989E+00  1.643430040E+01  5.264139692E-07  0.00000E+00  9.000E+00
#rwgt            1          17  -14.060628552077603                1      672697           0
<weights>
-.99978E+01
</weights>
</event>
<event>
     15  10001  1.35417E+01  1.47061E+01 -1.00000E+00  1.55435E-01
      21    -1     0     0   502   512  0.000000000E+00  0.000000000E+00  1.912150679E+02  1.912150679E+02  0.000000000E+00  0.00000E+00  9.000E+00
      21    -1     0     0   507   502  0.000000000E+00  0.000000000E+00 -4.735251243E+02  4.735251243E+02  0.000000000E+00  0.00000E+00  9.000E+00
      -6     2     1     2     0   501 -4.113705949E+01  7.196610952E+01  3.471276016E+01  1.912504000E+02  1.688204999E+02  0.00000E+00  9.000E+00
       6     2     1     2   507     0  4.858677187E+01 -5.928656799E+01 -3.716916735E+02  4.168774887E+02  1.725009243E+02  0.00000E+00  9.000E+00
     -24     2     3     3     0     0 -1.842967082E+01  9.759745587E+01  5.694507550E+01  1.404838117E+02  8.141279735E+01  0.00000E+00  9.000E+00
      24     2     4     4     0     0  8.114998994E+01 -7.884347231E+01 -2.241209915E+02  2.641608760E+02  8.215312260E+01  0.00000E+00  9.000E+00
     -11     1     6     6     0     0  5.325743611E+01 -5.908726559E+01 -6.895011636E+01  1.052700242E+02  2.132480600E-06  0.00000E+00  9.000E+00
      12     1     6     6     0     0  2.789255383E+01 -1.975620672E+01 -1.551708752E+02  1.588908517E+02  2.697398305E-06  0.00000E+00  9.000E+00
      13     1     5     5     0     0 -6.685704817E+00  8.755851787E+01  6.872556260E+00  8.808192056E+01  1.794089907E-06  0.00000E+00  9.000E+00
     -14     1     5     5     0     0 -1.174396600E+01  1.003893800E+01  5.007251924E+01  5.240189116E+01  2.611744678E-06  0.00000E+00  9.000E+00
       5     1     4     4   514     0 -2.945146794E+01  2.009943811E+01 -1.391100337E+02  1.436855607E+02  4.750000000E+00  0.00000E+00  9.000E+00
      -5     1     3     3     0   511 -3.663698168E+00 -8.677164625E+00 -2.295109080E+01  2.525927432E+01  4.750000000E+00  0.00000E+00  9.000E+00
      21     1     3     3   511   501 -1.904369051E+01 -1.695418173E+01  7.187754548E-01  2.550731394E+01  0.000000000E+00  0.00000E+00  9.000E+00
      21     1     1     2   501   512 -7.449712379E+00 -1.267954153E+01  5.466885695E+01  5.661230351E+01  0.000000000E+00  0.00000E+00  9.000E+00
      21     1     4     4   507   514 -3.111750124E+00 -5.425337878E-01 -8.460648197E+00  9.031051968E+00  1.685873940E-07  0.00000E+00  9.000E+00
#rwgt            1          17   14.291775760862656                1      693067           0
<weights>
0.12132E+02
</weights>
</event>
<event>
     15  10001  1.35417E+01  3.71587E+01 -1.00000E+00  4.47402E-01
      21    -1     0     0   512   501  0.000000000E+00  0.000000000E+00  2.402636783E+02  2.402636783E+02  0.000000000E+00  0.00000E+00  9.000E+00
      21    -1     0     0   507   502  0.000000000E+00  0.000000000E+00 -4.029221833E+02  4.029221833E+02  0.000000000E+00  0.00000E+00  9.000E+00
      -6     2     1     2     0   501 -1.137318751E+02  1.221681257E+01  9.166059368E+01  2.263566173E+02  1.724861265E+02  0.00000E+00  9.000E+00
       6     2     1     2   507     0  1.487109518E+02 -2.475602324E+01 -2.873957123E+02  3.670815812E+02  1.715365381E+02  0.00000E+00  9.000E+00
     -24     2     3     3     0     0 -3.260993330E+01  5.612891488E+01  8.341261435E+01  1.334174013E+02  8.141668079E+01  0.00000E+00  9.000E+00
      24     2     4     4     0     0  1.663640795E+02 -5.977128838E+01 -2.367106254E+02  3.000543356E+02  5.245064599E+01  0.00000E+00  9.000E+00
     -11     1     6     6     0     0  7.205870200E+01 -1.932266674E-01 -1.066274596E+02  1.286930807E+02  3.015782986E-06  0.00000E+00  9.000E+00
      12     1     6     6     0     0  9.430537749E+01 -5.957806171E+01 -1.300831658E+02  1.713612549E+02  3.303624740E-06  0.00000E+00  9.000E+00
      13     1     5     5     0     0  7.846677603E+00  7.503105277E+00 -1.372492115E+01  1.749972568E+01  7.725644944E-07  0.00000E+00  9.000E+00
     -14     1     5     5     0     0 -4.045661091E+01  4.862580960E+01  9.713753550E+01  1.159176757E+02  0.000000000E+00  0.00000E+00  9.000E+00
       5     1     4     4   511     0 -3.872824321E+00  1.853546833E+01 -3.616626064E+01  4.109894479E+01  4.750000000E+00  0.00000E+00  9.000E+00
      -5     1     3     3     0   513 -7.655953143E+01 -4.249160173E+01  8.795251662E+00  8.812954682E+01  4.750000000E+00  0.00000E+00  9.000E+00
      21     1     1     2   512   502 -3.497907669E+01  1.253921067E+01  3.307661370E+01  4.974766310E+01  6.743495762E-07  0.00000E+00  9.000E+00
      21     1     4     4   507   511 -1.378030340E+01  1.647979681E+01 -1.451882629E+01  2.592830078E+01  7.725644944E-07  0.00000E+00  9.000E+00
      21     1     3     3   513   501 -4.562410343E+00 -1.420500574E+00 -5.472723378E-01  4.809669119E+00  1.037745794E-07  0.00000E+00  9.000E+00
#rwgt            1          17   57.776710424322268                1      715245           0
<weights>
0.18092E+02
</weights>
</event>
<event>
     15  10001  1.35417E+01  3.14352E+01 -1.00000E+00  1.57905E-01
      21    -1     0     0   511   501  0.000000000E+00  0.000000000E+00  2.727704164E+02  2.727704164E+02  0.000000000E+00  0.00000E+00  9.000E+00
      21    -1     0     0   501   502  0.000000000E+00  0.000000000E+00 -3.411967245E+02  3.411967245E+02  0.000000000E+00  0.00000E+00  9.000E+00
      -6     2     1     2     0   502 -1.604782429E+02 -6.617144691E+01  1.327466300E+02  2.826817863E+02  1.793192620E+02  0.00000E+00  9.000E+00
       6     2     1     2   507     0  1.305325176E+02  7.573322049E+01 -1.588566157E+02  2.785706023E+02  1.720229556E+02  0.00000E+00  9.000E+00
     -24     2     3     3     0     0 -1.694107546E+02 -5.063117193E+01  1.538702703E+02  2.479236765E+02  8.078718918E+01  0.00000E+00  9.000E+00
      24     2     4     4     0     0  4.818305825E+01  1.400298559E+01 -8.290284652E+00  9.502047416E+01  8.026500471E+01  0.00000E+00  9.000E+00
     -11     1     6     6     0     0  1.833881814E+01  2.704391629E+01 -3.856994303E+01  5.055023407E+01  8.259061849E-07  0.00000E+00  9.000E+00
      12     1     6     6     0     0  2.984424011E+01 -1.304093070E+01  3.027965838E+01  4.447024008E+01  1.581489940E-06  0.00000E+00  9.000E+00
      13     1     5     5     0     0 -4.546263902E+01  1.859996247E+01  2.081792709E+01  5.334975388E+01  2.185142372E-06  0.00000E+00  9.000E+00
     -14     1     5     5     0     0 -1.239481155E+02 -6.923113440E+01  1.330523432E+02  1.945739226E+02  1.907348633E-06  0.00000E+00  9.000E+00
       5     1     4     4   514     0  8.184316390E+01  6.152553586E+01 -1.428752579E+02  1.758396908E+02  4.750000000E+00  0.00000E+00  9.000E+00
      -5     1     3     3     0   512 -3.356757020E+00 -1.164934253E+00 -1.277499858E+01  1.408502674E+01  4.750000000E+00  0.00000E+00  9.000E+00
      21     1     1     2   511   507  2.994572527E+01 -9.561773578E+00 -4.231632230E+01  5.271475229E+01  1.066240300E-06  0.00000E+00  9.000E+00
      21     1     3     3   512   502  1.228926869E+01 -1.437534072E+01 -8.348641772E+00  2.067308311E+01  4.616955931E-07  0.00000E+00  9.000E+00
      21     1     4     4   507   514  5.062954546E-01  2.046990297E-01 -7.691073155E+00  7.710437281E+00  1.192092896E-07  0.00000E+00  9.000E+00
#rwgt            1          17   12.693327121092675                1      741940           0
<weights>
0.16101E+02
</weights>
</event>
<event>
     15  10001  1.35417E+01  2.59104E+01 -1.00000E+00  2.23077E-01
      21    -1     0     0   502   512  0.000000000E+00  0.000000000E+00  1.722731202E+03  1.722731202E+03  0.000000000E+00  0.00000E+00  9.000E+00
      21    -1     0     0   507   502  0.000000000E+00  0.000000000E+00 -7.120305264E+02  7.120305264E+02  0.000000000E+00  0.00000E+00  9.000E+00
      -6     2     1     2     0   501  1.394950113E+02 -8.967735667E+01 -1.642526427E+02  2.895924178E+02  1.714174768E+02  0.00000E+00  9.000E+00
       6     2     1     2   507     0 -1.152208551E+02  9.873890092E+01 -4.579018795E+02  5.121085514E+02  1.719180652E+02  0.00000E+00  9.000E+00
     -24     2     3     3     0     0  1.672714429E+02 -8.634506716E+01 -1.264726245E+02  2.405633910E+02  8.025094444E+01  0.00000E+00  9.000E+00
      24     2     4     4     0     0 -2.793267700E+01  1.093981047E+02 -2.464685496E+02  2.830056929E+02  8.122374364E+01  0.00000E+00  9.000E+00
     -11     1     6     6     0     0  2.776832757E+01  3.003674108E+01 -5.686314522E+01  7.004786303E+01  2.939421655E-06  0.00000E+00  9.000E+00
      12     1     6     6     0     0 -5.570100457E+01  7.936136361E+01 -1.896054043E+02  2.129578299E+02  3.814697266E-06  0.00000E+00  9.000E+00
      13     1     5     5     0     0  8.480575653E+01 -5.897491471E+01 -1.122020785E+02  1.525102073E+02  4.672030912E-06  0.00000E+00  9.000E+00
     -14     1     5     5     0     0  8.246568637E+01 -2.737015245E+01 -1.427054604E+01  8.805318369E+01  2.517546664E-06  0.00000E+00  9.000E+00
       5     1     4     4   513     0 -7.427999987E+01 -1.038303004E+01 -1.770301258E+02  1.923214851E+02  4.750000000E+00  0.00000E+00  9.000E+00
      -5     1     3     3     0   511 -2.228873496E+01  2.203830874E+00 -3.189489257E+01  3.926182941E+01  4.750000000E+00  0.00000E+00  9.000E+00
      21     1     1     2   501   512 -2.427415619E+01 -9.061544247E+00  1.632855198E+03  1.633060759E+03  4.825252777E-05  0.00000E+00  9.000E+00
      21     1     3     3   511   501 -5.487696621E+00 -5.536120383E+00 -5.885125589E+00  9.767197464E+00  1.460009660E-07  0.00000E+00  9.000E+00
      21     1     4     4   507   513 -1.300817826E+01 -2.761737215E-01 -3.440320407E+01  3.678137333E+01  1.168007728E-06  0.00000E+00  9.000E+00
#rwgt            1          17   6.9331712565313675                1      754136           0
<weights>
0.76269E+01
</weights>
</event>
<event>
     13  10001  1.35417E+01  1.63852E+02 -1.00000E+00  1.14893E-01
      21    -1     0     0   511   501  0.000000000E+00  0.000000000E+00  1.196608336E+02  1.196608336E+02  0.000000000E+00  0.00000E+00  9.000E+00
      21    -1     0     0   507   502  0.000000000E+00  0.000000000E+00 -1.158045961E+03  1.158045961E+03  0.000000000E+00  0.00000E+00  9.000E+00
      -6     2     1     2     0   501 -1.048004451E+02  3.370303620E+01 -1.071175917E+02  2.310264707E+02  1.725688958E+02  0.00000E+00  9.000E+00
       6     2     1     2   507     0 -2.876217216E+01 -1.286167200E+02 -8.216248845E+02  8.495278675E+02  1.710573696E+02  0.00000E+00  9.000E+00
     -24     2     3     3     0     0 -1.358023079E+02  4.926678092E+01 -9.962337293E+01  1.952204452E+02  8.553784690E+01  0.00000E+00  9.000E+00
      24     2     4     4     0     0 -4.943342650E+01 -1.323464780E+02 -8.081703604E+02  8.241349833E+02  7.810176287E+01  0.00000E+00  9.000E+00
     -11     1     6     6     0     0 -4.166698573E+01 -1.983718153E+01 -1.740454449E+02  1.800596245E+02  0.000000000E+00  0.00000E+00  9.000E+00
      12     1     6     6     0     0 -7.766440767E+00 -1.125092965E+02 -6.341249155E+02  6.440753589E+02  0.000000000E+00  0.00000E+00  9.000E+00
      13     1     5     5     0     0 -1.900257994E+00  3.234351170E+01 -1.339157490E+01  3.505778099E+01  1.272806913E-06  0.00000E+00  9.000E+00
     -14     1     5     5     0     0 -1.339020499E+02  1.692326922E+01 -8.623179803E+01  1.601626642E+02  3.932099939E-06  0.00000E+00  9.000E+00
       5     1     4     4   507     0  2.067125434E+01  3.729758007E+00 -1.345452405E+01  2.539288420E+01  4.750000000E+00  0.00000E+00  9.000E+00
      -5     1     3     3     0   501  3.100186285E+01 -1.556374472E+01 -7.494218720E+00  3.580602553E+01  4.750000000E+00  0.00000E+00  9.000E+00
      21     1     1     2   511   502  1.335626172E+02  9.491368380E+01 -1.096426515E+02  1.971524565E+02  3.015782986E-06  0.00000E+00  9.000E+00
#rwgt            2         113   1.8257777983050645                1      780001           0
<weights>
0.13542E+02
</weights>
</event>
<event>
     14  10001  1.35417E+01  3.00404E+01 -1.00000E+00  1.58041E-01
      21    -1     0     0   507   501  0.000000000E+00  0.000000000E+00  5.515343517E+02  5.515343517E+02  0.000000000E+00  0.00000E+00  9.000E+00
      21    -1     0     0   512   502  0.000000000E+00  0.000000000E+00 -2.267225786E+02  2.267225786E+02  0.000000000E+00  0.00000E+00  9.000E+00
      -6     2     1     2     0   502 -6.075553014E+01 -2.915419150E+01 -1.533515824E+02  2.404044699E+02  1.724424542E+02  0.00000E+00  9.000E+00
       6     2     1     2   507     0  9.021680807E+01  3.502415888E+01  4.648295861E+02  5.049858692E+02  1.719837777E+02  0.00000E+00  9.000E+00
     -24     2     3     3     0     0 -5.749404708E+01 -3.498678395E+01 -1.543932529E+02  1.861986959E+02  7.939167026E+01  0.00000E+00  9.000E+00
      24     2     4     4     0     0  9.259606970E+01  2.940949557E+01  1.777420380E+02  2.177942813E+02  8.001978739E+01  0.00000E+00  9.000E+00
     -11     1     6     6     0     0  5.193407147E+01  3.611912568E+01  1.615883527E+02  1.735296365E+02  0.000000000E+00  0.00000E+00  9.000E+00
      12     1     6     6     0     0  4.066199823E+01 -6.709630109E+00  1.615368529E+01  4.426464487E+01  6.743495762E-07  0.00000E+00  9.000E+00
      13     1     5     5     0     0 -4.939410803E+01  1.565470375E+01 -6.484417821E+01  8.300370537E+01  3.814697266E-06  0.00000E+00  9.000E+00
     -14     1     5     5     0     0 -8.099939043E+00 -5.064148769E+01 -8.954907466E+01  1.031949905E+02  4.046097457E-06  0.00000E+00  9.000E+00
       5     1     4     4   507     0 -2.379261631E+00  5.614663302E+00  2.870875481E+02  2.871915878E+02  4.750000000E+00  0.00000E+00  9.000E+00
      -5     1     3     3     0   513 -4.049948199E+00  2.986910683E+00  2.710566127E+01  2.797504403E+01  4.750000000E+00  0.00000E+00  9.000E+00
      21     1     1     2   512   501 -2.946127793E+01 -5.869967377E+00  1.333376934E+01  3.286659123E+01  6.078504936E-07  0.00000E+00  9.000E+00
      21     1     3     3   513   502  7.884651354E-01  2.845681765E+00 -2.606399075E+01  2.623072999E+01  8.259061849E-07  0.00000E+00  9.000E+00
#rwgt            1          17   59.806431486059800                1      780055           0
<weights>
0.98896E+01
</weights>
</event>
<event>
     14  10001  1.35417E+01  2.05454E+00 -1.00000E+00  7.51317E-01
      -2    -1     0     0     0   501  0.000000000E+00  0.000000000E+00  2.170409767E+03  2.170409767E+03  0.000000000E+00  0.00000E+00  9.000E+00
      21    -1     0     0   501   512  0.000000000E+00  0.000000000E+00 -3.131730629E+02  3.131730629E+02  0.000000000E+00  0.00000E+00  9.000E+00
      -6     2     1     2     0   507  2.158170153E+02 -9.055972306E+01  1.736472429E+03  1.760666470E+03  1.727190662E+02  0.00000E+00  9.000E+00
       6     2     1     2   507     0 -2.137911976E+02  9.021739203E+01  3.724410359E+02  4.712312120E+02  1.717576083E+02  0.00000E+00  9.000E+00
     -24     2     3     3     0     0  2.263209459E+02 -1.043687028E+02  1.699369141E+03  1.719432541E+03  8.049091822E+01  0.00000E+00  9.000E+00
      24     2     4     4     0     0 -2.048718395E+02  1.006148283E+02  3.809150901E+02  4.512592605E+02  8.026705448E+01  0.00000E+00  9.000E+00
     -11     1     6     6     0     0 -1.151378996E+02  8.627261909E+01  1.776278455E+02  2.285855468E+02  7.387129490E-06  0.00000E+00  9.000E+00
      12     1     6     6     0     0 -8.973393986E+01  1.434220918E+01  2.032872446E+02  2.226737137E+02  4.672030912E-06  0.00000E+00  9.000E+00
      13     1     5     5     0     0  4.773696650E+01 -2.953914640E+01  6.444707155E+02  6.469110312E+02  1.078959322E-05  0.00000E+00  9.000E+00
     -14     1     5     5     0     0  1.785839794E+02 -7.482955638E+01  1.054898426E+03  1.072521510E+03  0.000000000E+00  0.00000E+00  9.000E+00
       5     1     4     4   511     0 -1.116039583E+01 -9.599794885E+00 -6.149539488E+00  1.664601553E+01  4.750000000E+00  0.00000E+00  9.000E+00
      -5     1     3     3     0   507 -1.050393062E+01  1.380897973E+01  3.710328797E+01  4.123392969E+01  4.750000000E+00  0.00000E+00  9.000E+00
      21     1     4     4   507   511  2.241037736E+00 -7.976413645E-01 -2.324514702E+00  3.325936031E+00  3.424026159E-07  0.00000E+00  9.000E+00
      -2     1     1     2     0   512 -2.025817723E+00  3.423310297E-01 -2.516767612E+02  2.516851471E+02  2.697398305E-06  0.00000E+00  9.000E+00
#rwgt            1           6  0.22663659100533029                1      797855           0
<weights>
0.12479E+02
</weights>
</event>
<event>
     15  10001 -1.35417E+01  3.97456E+00 -1.00000E+00  5.02241E-01
      21    -1     0     0   502   512  0.000000000E+00  0.000000000E+00  8.741795572E+01  8.741795572E+01  0.000000000E+00  0.00000E+00  9.000E+00
      21    -1     0     0   507   502  0.000000000E+00  0.000000000E+00 -9.932479938E+02  9.932479938E+02  0.000000000E+00  0.00000E+00  9.000E+00
      -6     2     1     2     0   501 -4.765703301E+01 -4.903238961E+01 -2.542444394E+01  1.881362042E+02  1.734170146E+02  0.00000E+00  9.000E+00
       6     2     1     2   507     0  5.133520119E+01  4.752632051E+01 -8.761458972E+02  8.867037532E+02  1.171232637E+02  0.00000E+00  9.000E+00
     -24     2     3     3     0     0 -4.808291394E+01 -5.180601603E+00  4.605974115E+01  1.037108523E+02  7.934504323E+01  0.00000E+00  9.000E+00
      24     2     4     4     0     0  4.915878429E+01  4.732129449E+01 -5.386346120E+02  5.489188743E+02  8.080095506E+01  0.00000E+00  9.000E+00
     -11     1     6     6     0     0  2.240350372E+01 -1.336687717E+01 -3.032071729E+02  3.043274225E+02  5.394796609E-06  0.00000E+00  9.000E+00
      12     1     6     6     0     0  2.675528057E+01  6.068817166E+01 -2.354274391E+02  2.445914519E+02  5.394796609E-06  0.00000E+00  9.000E+00
      13     1     5     5     0     0 -1.420441235E+00  1.293604028E+01  5.172345785E+01  5.333549365E+01  5.001110307E-06  0.00000E+00  9.000E+00
     -14     1     5     5     0     0 -4.666247271E+01 -1.811664189E+01 -5.663716696E+00  5.037535865E+01  1.028935701E-06  0.00000E+00  9.000E+00
       5     1     4     4   511     0  8.463435581E-01 -1.017653358E+00 -3.307388367E+02  3.307755924E+02  4.750000000E+00  0.00000E+00  9.000E+00
      -5     1     3     3     0   514  5.651944021E-01 -4.414141787E+01 -6.990194576E+01  8.281080085E+01  4.750000000E+00  0.00000E+00  9.000E+00
      21     1     1     2   501   512 -3.678168186E+00  1.506069103E+00 -4.259696957E+00  5.825992063E+00  5.960464478E-08  0.00000E+00  9.000E+00
      21     1     4     4   507   511  1.330073346E+00  1.222679378E+00 -6.772448452E+00  7.009286555E+00  0.000000000E+00  0.00000E+00  9.000E+00
      21     1     3     3   514   501 -1.393134650E-01  2.896298593E-01 -1.582239335E+00  1.614551024E+00  4.214684851E-08  0.00000E+00  9.000E+00
#rwgt            1          17  -2022.9590899012485                1      801184           0
<weights>
-.13936E+02
</weights>
</event>
<event>
     15  10001 -1.35417E+01  1.32266E+01 -1.00000E+00  2.67729E-01
      21    -1     0     0   507   511  0.000000000E+00  0.000000000E+00  9.872582255E+02  9.872582255E+02  0.000000000E+00  0.00000E+00  9.000E+00
      21    -1     0     0   501   502  0.000000000E+00  0.000000000E+00 -6.090627515E+01  6.090627515E+01  0.000000000E+00  0.00000E+00  9.000E+00
      -6     2     1     2     0   502 -9.273163422E+01  6.884869621E+01  4.708391080E+02  5.146487572E+02  1.727268905E+02  0.00000E+00  9.000E+00
       6     2     1     2   507     0  9.142814661E+01 -8.201090282E+01  4.689464410E+02  5.146635730E+02  1.728668120E+02  0.00000E+00  9.000E+00
     -24     2     3     3     0     0 -3.974139980E+01  3.535900855E+01  1.023252582E+02  1.405208394E+02  8.028704435E+01  0.00000E+00  9.000E+00
      24     2     4     4     0     0  8.673823411E+01 -1.104200620E+02  2.827752000E+02  3.258736439E+02  8.071992756E+01  0.00000E+00  9.000E+00
     -11     1     6     6     0     0 -1.090652003E+01 -3.353164964E+01  8.826874463E+01  9.505101254E+01  2.132480600E-06  0.00000E+00  9.000E+00
      12     1     6     6     0     0  9.764475414E+01 -7.688841241E+01  1.945064554E+02  2.308226314E+02  3.814697266E-06  0.00000E+00  9.000E+00
      13     1     5     5     0     0 -9.682631385E+00  2.877846127E+01  1.053154975E+02  1.096052334E+02  1.348699152E-06  0.00000E+00  9.000E+00
     -14     1     5     5     0     0 -3.005876841E+01  6.580547285E+00 -2.990239277E+00  3.091560596E+01  2.909659206E-06  0.00000E+00  9.000E+00
       5     1     4     4   512     0  5.406098710E+00  1.029745357E+01  9.567582966E+01  9.649710013E+01  4.750000000E+00  0.00000E+00  9.000E+00
      -5     1     3     3     0   513 -4.782570518E+01  2.832772600E+01  3.457418457E+02  3.502138554E+02  4.750000000E+00  0.00000E+00  9.000E+00
      21     1     1     2   501   511  1.303487610E+00  1.316220661E+01 -1.343359857E+01  1.885217052E+01  1.227334755E-06  0.00000E+00  9.000E+00
      21     1     4     4   507   512 -7.161862037E-01  1.811170566E+01  9.049541131E+01  9.229282893E+01  1.348699152E-06  0.00000E+00  9.000E+00
      21     1     3     3   513   502 -5.164529243E+00  5.161961657E+00  2.277200406E+01  2.391406237E+01  3.371747881E-07  0.00000E+00  9.000E+00
#rwgt            1          17  -11.620370339278638                1      837197           0
<weights>
-.22659E+02
</weights>
</event>
<event>
     15  10001  1.35417E+01  2.90315E+01 -1.00000E+00  1.45381E-01
      21    -1     0     0   511   501  0.000000000E+00  0.000000000E+00  7.035278810E+02  7.035278810E+02  0.000000000E+00  0.00000E+00  9.000E+00
      21    -1     0     0   501   502  0.000000000E+00  0.000000000E+00 -2.167796986E+02  2.167796986E+02  0.000000000E+00  0.00000E+00  9.000E+00
      -6     2     1     2     0   502  1.731288379E+02  1.434225357E+02  2.113209512E+02  3.534331319E+02  1.723798598E+02  0.00000E+00  9.000E+00
       6     2     1     2   507     0 -1.719915195E+02 -1.144132988E+02  3.758253818E+02  4.623631184E+02  1.728104451E+02  0.00000E+00  9.000E+00
     -24     2     3     3     0     0  7.075236558E+01  6.808419715E+01  3.290585822E+01  1.316965893E+02  8.136240523E+01  0.00000E+00  9.000E+00
      24     2     4     4     0     0 -1.304850218E+02 -3.376140466E+01  1.441201562E+02  2.132155748E+02  8.077183022E+01  0.00000E+00  9.000E+00
     -11     1     6     6     0     0 -1.409853369E+02 -3.592685517E+01  1.275833145E+02  1.935073804E+02  2.336015456E-06  0.00000E+00  9.000E+00
      12     1     6     6     0     0  1.050031507E+01  2.165450503E+00  1.653684175E+01  1.970819442E+01  8.259061849E-07  0.00000E+00  9.000E+00
      13     1     5     5     0     0 -1.732837882E+00  3.798229016E+01  3.706585674E+01  5.309929217E+01  8.259061849E-07  0.00000E+00  9.000E+00
     -14     1     5     5     0     0  7.248520346E+01  3.010190700E+01 -4.159998518E+00  7.859729711E+01  2.269677253E-06  0.00000E+00  9.000E+00
       5     1     4     4   514     0 -3.806380103E+01 -7.214736777E+01  1.975578617E+02  2.137890709E+02  4.750000000E+00  0.00000E+00  9.000E+00
      -5     1     3     3     0   512  5.323893852E+01  1.896237310E+01  7.150004831E+01  9.126212564E+01  4.750000000E+00  0.00000E+00  9.000E+00
      21     1     3     3   512   502  4.913753375E+01  5.637596546E+01  1.069150447E+02  1.304744170E+02  1.907348633E-06  0.00000E+00  9.000E+00
      21     1     1     2   511   507 -1.137318349E+00 -2.900923690E+01 -1.003981506E+02  1.045113294E+02  3.015782986E-06  0.00000E+00  9.000E+00
      21     1     4     4   507   514 -3.442696647E+00 -8.504526371E+00  3.414736387E+01  3.535847265E+01  6.743495762E-07  0.00000E+00  9.000E+00
#rwgt            1          17   7.8563240934338072                1      857124           0
<weights>
0.14894E+02
</weights>
</event>
<event>
     15  10001  1.35417E+01  1.73932E+01 -1.00000E+00  1.63549E-01
      21    -1     0     0   512   501  0.000000000E+00  0.000000000E+00  1.037667046E+02  1.037667046E+02  0.000000000E+00  0.00000E+00  9.000E+00
      21    -1     0     0   507   502  0.000000000E+00  0.000000000E+00 -5.584815925E+02  5.584815925E+02  0.000000000E+00  0.00000E+00  9.000E+00
      -6     2     1     2     0   501 -5.702000445E+01  1.106895135E+02 -1.614511173E+02  2.677559147E+02  1.735607020E+02  0.00000E+00  9.000E+00
       6     2     1     2   507     0  4.333718098E+01 -1.214274043E+02 -1.813842587E+02  2.812689433E+02  1.720152418E+02  0.00000E+00  9.000E+00
     -24     2     3     3     0     0 -8.184199089E+01  1.080460586E+02 -1.686113341E+02  2.318601177E+02  8.341025073E+01  0.00000E+00  9.000E+00
      24     2     4     4     0     0  1.457502426E+01 -1.378228958E+02 -1.895028183E+02  2.465781648E+02  7.537832096E+01  0.00000E+00  9.000E+00
     -11     1     6     6     0     0 -2.330498745E+00 -1.025609443E+01  6.311306254E+00  1.226585847E+01  2.230201594E-07  0.00000E+00  9.000E+00
      12     1     6     6     0     0  1.690552301E+01 -1.275668014E+02 -1.958141246E+02  2.343123063E+02  4.672030912E-06  0.00000E+00  9.000E+00
      13     1     5     5     0     0 -2.765890941E+01  7.228999978E+01 -1.419502316E+02  1.616809438E+02  2.697398305E-06  0.00000E+00  9.000E+00
     -14     1     5     5     0     0 -5.418308148E+01  3.575605885E+01 -2.666110255E+01  7.017917392E+01  1.469710828E-06  0.00000E+00  9.000E+00
       5     1     4     4   513     0  2.651115084E+01  1.627678892E+01  7.447426207E+00  3.233885640E+01  4.750000000E+00  0.00000E+00  9.000E+00
      -5     1     3     3     0   511  1.957406030E+01  1.257251226E+01  3.060932609E+00  2.394042000E+01  4.750000000E+00  0.00000E+00  9.000E+00
      21     1     3     3   511   501  5.247926146E+00 -9.929057349E+00  4.099284203E+00  1.195537702E+01  4.693274423E-07  0.00000E+00  9.000E+00
      21     1     1     2   512   502  1.368282347E+01  1.073789077E+01 -1.118795119E+02  1.132234390E+02  1.348699152E-06  0.00000E+00  9.000E+00
      21     1     4     4   507   513  2.251005878E+00  1.187025657E-01  6.711333748E-01  2.351922144E+00  7.450580597E-08  0.00000E+00  9.000E+00
#rwgt            1          17   23.198332135943094                1      867837           0
<weights>
0.67984E+01
</weights>
</event>
<event>
     15  10001  1.35417E+01  2.46279E+01 -1.00000E+00  1.55207E-01
      21    -1     0     0   511   501  0.000000000E+00  0.000000000E+00  4.318791317E+02  4.318791317E+02  0.000000000E+00  0.00000E+00  9.000E+00
      21    -1     0     0   501   502  0.000000000E+00  0.000000000E+00 -1.362225490E+02  1.362225490E+02  0.000000000E+00  0.00000E+00  9.000E+00
      -6     2     1     2     0   502 -4.386665598E+00  8.190532141E+01  1.423606073E+02  2.398331780E+02  1.747160160E+02  0.00000E+00  9.000E+00
       6     2     1     2   507     0  2.459730836E+01 -6.783178223E+01  2.017092291E+02  2.739511233E+02  1.707525302E+02  0.00000E+00  9.000E+00
     -24     2     3     3     0     0  4.031069102E+01  9.083012074E-01  5.775757405E+01  1.068651566E+02  8.036446673E+01  0.00000E+00  9.000E+00
      24     2     4     4     0     0  2.749440042E+01 -1.512641402E+01  1.988025745E+02  2.174421053E+02  8.230343300E+01  0.00000E+00  9.000E+00
     -11     1     6     6     0     0  5.566075323E+01 -8.631038723E+00  1.032678354E+02  1.176301836E+02  0.000000000E+00  0.00000E+00  9.000E+00
      12     1     6     6     0     0 -2.816635281E+01 -6.495375294E+00  9.553473913E+01  9.981192169E+01  3.303624740E-06  0.00000E+00  9.000E+00
      13     1     5     5     0     0  2.366805674E+01  1.042752483E+01 -1.616315943E+01  3.049849023E+01  5.331201500E-07  0.00000E+00  9.000E+00
     -14     1     5     5     0     0  1.664263428E+01 -9.519223626E+00  7.392073348E+01  7.636666637E+01  9.536743164E-07  0.00000E+00  9.000E+00
       5     1     4     4   514     0 -3.279524425E+00 -5.368825842E+01  6.315559231E-01  5.400134938E+01  4.750000000E+00  0.00000E+00  9.000E+00
      -5     1     3     3     0   512 -3.748259716E+01  5.870914390E+01  8.440907437E+01  1.095406911E+02  4.750000000E+00  0.00000E+00  9.000E+00
      21     1     3     3   512   502 -7.214759454E+00  2.228787631E+01  1.939588404E-01  2.342733028E+01  4.590503992E-07  0.00000E+00  9.000E+00
      21     1     1     2   511   507 -2.021064277E+01 -1.407353918E+01 -4.841325361E+01  5.431737946E+01  1.507891493E-06  0.00000E+00  9.000E+00
      21     1     4     4   507   514  3.824323650E-01  9.828902038E-01  2.275098659E+00  2.507668554E+00  5.161913656E-08  0.00000E+00  9.000E+00
#rwgt            1          17   17.895157360418764                1      888542           0
<weights>
0.24214E+02
</weights>
</event>
<event>
     15  10001  1.35417E+01  7.73484E+01 -1.00000E+00  3.37539E-01
      21    -1     0     0   502   501  0.000000000E+00  0.000000000E+00  2.918730076E+02  2.918730076E+02  0.000000000E+00  0.00000E+00  9.000E+00
      21    -1     0     0   507   511  0.000000000E+00  0.000000000E+00 -3.692050269E+02  3.692050269E+02  0.000000000E+00  0.00000E+00  9.000E+00
      -6     2     1     2     0   501 -2.799317751E+01  3.153710585E+01  1.912875424E+02  2.622152694E+02  1.743207292E+02  0.00000E+00  9.000E+00
       6     2     1     2   507     0  1.043064058E+02 -4.414916873E+01 -2.326503559E+02  3.135600294E+02  1.771008994E+02  0.00000E+00  9.000E+00
     -24     2     3     3     0     0 -6.165594607E+01  1.288112083E+01  1.948379165E+02  2.201052417E+02  8.072871097E+01  0.00000E+00  9.000E+00
      24     2     4     4     0     0  6.823689706E+01 -6.480985695E+01 -6.334239411E+01  1.388131789E+02  8.000155044E+01  0.00000E+00  9.000E+00
     -11     1     6     6     0     0  2.605439704E+01  1.379373824E+01 -1.309510578E-01  2.948077285E+01  4.015674599E-07  0.00000E+00  9.000E+00
      12     1     6     6     0     0  4.218250002E+01 -7.860359519E+01 -6.321144305E+01  1.093324061E+02  1.507891493E-06  0.00000E+00  9.000E+00
      13     1     5     5     0     0 -1.109878779E+01 -1.310980279E+01  1.402329321E+02  1.412810152E+02  4.264961200E-06  0.00000E+00  9.000E+00
     -14     1     5     5     0     0 -5.055715828E+01  2.599092362E+01  5.460498443E+01  7.882422653E+01  2.132480600E-06  0.00000E+00  9.000E+00
       5     1     4     4   512     0  2.661877547E+01  1.170865027E+01 -1.010340655E+02  1.052430359E+02  4.750000000E+00  0.00000E+00  9.000E+00
      -5     1     3     3     0   513  3.322052438E+01  1.842772684E+01 -6.746871717E+00  3.887501942E+01  4.750000000E+00  0.00000E+00  9.000E+00
      21     1     1     2   502   511 -7.631322830E+01  1.261206287E+01 -3.596920574E+01  8.530273563E+01  8.259061849E-07  0.00000E+00  9.000E+00
      21     1     4     4   507   512  9.450733281E+00  8.952037954E+00 -6.827389624E+01  6.950381465E+01  1.348699152E-06  0.00000E+00  9.000E+00
      21     1     3     3   513   501  4.422441759E-01  2.282581739E-01  3.196497605E+00  3.235008292E+00  0.000000000E+00  0.00000E+00  9.000E+00
#rwgt            1          17   35.957253592304326                1      908124           0
<weights>
0.13236E+02
</weights>
</event>
<event>
     13  10001  1.35417E+01  3.28952E+01 -1.00000E+00  1.50312E-01
      21    -1     0     0   502   501  0.000000000E+00  0.000000000E+00  6.602844167E+02  6.602844167E+02  0.000000000E+00  0.00000E+00  9.000E+00
      21    -1     0     0   512   502  0.000000000E+00  0.000000000E+00 -2.387747000E+02  2.387747000E+02  0.000000000E+00  0.00000E+00  9.000E+00
      -6     2     1     2     0   501 -5.795733313E+00 -1.778794601E+01  2.295962160E+02  2.889434047E+02  1.744243881E+02  0.00000E+00  9.000E+00
       6     2     1     2   507     0  2.076651162E+01 -1.150320330E+01  3.806666972E+02  4.185175261E+02  1.722968763E+02  0.00000E+00  9.000E+00
     -24     2     3     3     0     0  3.060364755E+00 -4.117413726E+01  4.233813201E+01  9.996325508E+01  8.059441378E+01  0.00000E+00  9.000E+00
      24     2     4     4     0     0 -2.787604531E+01 -4.108785163E+01  7.628604862E+01  1.088217213E+02  5.964327586E+01  0.00000E+00  9.000E+00
     -11     1     6     6     0     0 -4.431519332E+01 -3.300836391E+01  7.057693299E+01  8.963532740E+01  9.536743164E-07  0.00000E+00  9.000E+00
      12     1     6     6     0     0  1.643914801E+01 -8.079487719E+00  5.709115633E+00  1.918639389E+01  4.042583694E-07  0.00000E+00  9.000E+00
      13     1     5     5     0     0 -3.052398804E+01 -3.079683537E+01 -1.969667652E+00  4.340551239E+01  1.463351690E-06  0.00000E+00  9.000E+00
     -14     1     5     5     0     0  3.358435280E+01 -1.037730189E+01  4.430779966E+01  5.655774269E+01  1.348699152E-06  0.00000E+00  9.000E+00
       5     1     4     4   507     0  4.864255693E+01  2.958464833E+01  3.043806486E+02  3.096958048E+02  4.750000000E+00  0.00000E+00  9.000E+00
      -5     1     3     3     0   501 -8.856098068E+00  2.338619125E+01  1.872580840E+02  1.889801496E+02  4.750000000E+00  0.00000E+00  9.000E+00
      21     1     1     2   512   507 -1.497077830E+01  2.929114931E+01 -1.887531966E+02  1.915981859E+02  0.000000000E+00  0.00000E+00  9.000E+00
#rwgt            2         113   4.7501832281050413                1      940880           0
<weights>
0.13542E+02
</weights>
</event>
<event>
     15  10001 -1.35417E+01  6.41757E+01 -1.00000E+00  2.00914E-01
      21    -1     0     0   511   501  0.000000000E+00  0.000000000E+00  2.378428610E+02  2.378428610E+02  0.000000000E+00  0.00000E+00  9.000E+00
      21    -1     0     0   507   502  0.000000000E+00  0.000000000E+00 -1.271413240E+03  1.271413240E+03  0.000000000E+00  0.00000E+00  9.000E+00
      -6     2     1     2     0   501 -1.844669311E+02  3.530978565E+01 -3.617606209E+02  4.424142419E+02  1.720022819E+02  0.00000E+00  9.000E+00
       6     2     1     2   507     0  1.220708244E+02 -2.030170862E+01 -8.508514950E+02  8.766460127E+02  1.710161379E+02  0.00000E+00  9.000E+00
     -24     2     3     3     0     0 -1.763197436E+02  7.269461311E+01 -2.912001803E+02  3.573737111E+02  8.090281606E+01  0.00000E+00  9.000E+00
      24     2     4     4     0     0  8.473600883E+01  7.103204254E+00 -2.767291890E+02  3.004900247E+02  8.052679161E+01  0.00000E+00  9.000E+00
     -11     1     6     6     0     0  1.650269872E+01  3.846743129E+01 -9.167816713E+01  1.007817874E+02  2.697398305E-06  0.00000E+00  9.000E+00
      12     1     6     6     0     0  6.823331012E+01 -3.136422704E+01 -1.850510219E+02  1.997082373E+02  0.000000000E+00  0.00000E+00  9.000E+00
      13     1     5     5     0     0 -1.301581304E+02  6.025341702E+01 -1.466770025E+02  2.051481324E+02  5.046370146E-06  0.00000E+00  9.000E+00
     -14     1     5     5     0     0 -4.616161319E+01  1.244119609E+01 -1.445231778E+02  1.522255787E+02  4.672030912E-06  0.00000E+00  9.000E+00
       5     1     4     4   513     0  2.123014771E+01 -1.493731963E+01 -2.484784877E+02  2.498758973E+02  4.750000000E+00  0.00000E+00  9.000E+00
      -5     1     3     3     0   512 -5.959470959E+00 -4.013797882E+01 -5.189715791E+01  6.604884660E+01  4.750000000E+00  0.00000E+00  9.000E+00
      21     1     1     2   511   502  6.239610668E+01 -1.500807703E+01  1.790417369E+02  1.901958465E+02  2.697398305E-06  0.00000E+00  9.000E+00
      21     1     4     4   507   513  1.610466789E+01 -1.246759325E+01 -3.256438182E+02  3.262800906E+02  3.814697266E-06  0.00000E+00  9.000E+00
      21     1     3     3   512   501 -2.187716541E+00  2.753151361E+00 -1.866328272E+01  1.899168418E+01  0.000000000E+00  0.00000E+00  9.000E+00
#rwgt            1          17  -17.472522449370501                1      943382           0
<weights>
-.15539E+02
</weights>
</event>
<event>
     15  10001  1.35417E+01  4.40305E+01 -1.00000E+00  1.60600E-01
      21    -1     0     0   507   512  0.000000000E+00  0.000000000E+00  2.206885279E+02  2.206885279E+02  0.000000000E+00  0.00000E+00  9.000E+00
      21    -1     0     0   501   502  0.000000000E+00  0.000000000E+00 -2.038140280E+02  2.038140280E+02  0.000000000E+00  0.00000E+00  9.000E+00
      -6     2     1     2     0   502 -5.478728335E+01 -4.157979687E+01 -1.289332738E+01  1.869515883E+02  1.733612775E+02  0.00000E+00  9.000E+00
       6     2     1     2   507     0  1.126107778E+01  4.822459063E+01  5.374078953E+01  1.874172786E+02  1.725825624E+02  0.00000E+00  9.000E+00
     -24     2     3     3     0     0 -8.779441933E+01 -5.735080324E+01 -2.155871962E+01  1.333486402E+02  7.949909901E+01  0.00000E+00  9.000E+00
      24     2     4     4     0     0 -7.038323168E+00  9.659445285E+01  3.931700880E+01  1.324754118E+02  8.138723025E+01  0.00000E+00  9.000E+00
     -11     1     6     6     0     0 -3.720994612E+01  8.404332589E+01  3.887209915E+01  9.979429246E+01  1.430511475E-06  0.00000E+00  9.000E+00
      12     1     6     6     0     0  3.017162295E+01  1.255112697E+01  4.449096457E-01  3.268111938E+01  1.306743480E-06  0.00000E+00  9.000E+00
      13     1     5     5     0     0 -7.858360350E+01 -1.580110754E+01 -3.672444016E+01  8.816882807E+01  2.286830675E-06  0.00000E+00  9.000E+00
     -14     1     5     5     0     0 -9.210815835E+00 -4.154969570E+01  1.516572054E+01  4.517981209E+01  4.129530925E-07  0.00000E+00  9.000E+00
       5     1     4     4   513     0  1.910222670E+01 -4.790000439E+01  1.491248012E+01  5.389109434E+01  4.750000000E+00  0.00000E+00  9.000E+00
      -5     1     3     3     0   511  3.006641442E+01  1.795192757E+01 -8.255770326E+00  3.629023592E+01  4.750000000E+00  0.00000E+00  9.000E+00
      21     1     1     2   501   512  4.352620556E+01 -6.644793764E+00 -2.397296224E+01  5.013368901E+01  1.261592536E-06  0.00000E+00  9.000E+00
      21     1     3     3   511   502  2.940721560E+00 -2.180921196E+00  1.692116257E+01  1.731271218E+01  4.768371582E-07  0.00000E+00  9.000E+00
      21     1     4     4   507   513 -8.028257535E-01 -4.698578269E-01 -4.886993897E-01  1.050772412E+00  2.885597457E-08  0.00000E+00  9.000E+00
#rwgt            1          17   7.4908290013005789                1      966406           0
<weights>
0.16464E+02
</weights>
</event>
<event>
     14  10001  1.35417E+01  9.24332E+01 -1.00000E+00  7.52610E-01
      21    -1     0     0   502   501  0.000000000E+00  0.000000000E+00  3.628582371E+02  3.628582371E+02  0.000000000E+00  0.00000E+00  9.000E+00
       1    -1     0     0   507     0  0.000000000E+00  0.000000000E+00 -9.026016326E+02  9.026016326E+02  0.000000000E+00  0.00000E+00  9.000E+00
      -6     2     1     2     0   501 -2.354648909E+02  1.766993282E+01  1.628119277E+02  3.348537038E+02  1.728101206E+02  0.00000E+00  9.000E+00
       6     2     1     2   507     0  3.255968366E+02 -3.816702619E+01 -2.029183640E+02  4.224910318E+02  1.727795927E+02  0.00000E+00  9.000E+00
     -24     2     3     3     0     0 -2.316065039E+02  4.912777964E+01  1.102645151E+02  2.733047286E+02  8.051148996E+01  0.00000E+00  9.000E+00
      24     2     4     4     0     0  1.007584061E+02  1.944042276E+01 -1.160050447E+02  1.745828056E+02  8.057170208E+01  0.00000E+00  9.000E+00
     -11     1     6     6     0     0 -7.733052287E+00  2.395868420E+00 -4.051863922E+01  4.131949185E+01  8.259061849E-07  0.00000E+00  9.000E+00
      12     1     6     6     0     0  1.084914584E+02  1.704455434E+01 -7.548640547E+01  1.332633137E+02  2.697398305E-06  0.00000E+00  9.000E+00
      13     1     5     5     0     0 -7.131937971E+01  2.211278936E+01 -3.741022783E+00  7.476245466E+01  1.540523527E-06  0.00000E+00  9.000E+00
     -14     1     5     5     0     0 -1.602871242E+02  2.701499028E+01  1.140055379E+02  1.985422740E+02  5.560829062E-06  0.00000E+00  9.000E+00
       5     1     4     4   512     0  1.798682461E+02 -4.590887874E+01 -7.049264582E+01  1.986252419E+02  4.750000000E+00  0.00000E+00  9.000E+00
      -5     1     3     3     0   501 -3.858386983E+00 -3.145784682E+01  5.254741256E+01  6.154897516E+01  4.750000000E+00  0.00000E+00  9.000E+00
       1     1     1     2   502     0 -9.013194570E+01  2.049709337E+01 -4.996369592E+02  5.081151341E+02  9.344061824E-06  0.00000E+00  9.000E+00
      21     1     4     4   507   512  4.497018441E+01 -1.169857021E+01 -1.642067349E+01  4.928298437E+01  1.143415337E-06  0.00000E+00  9.000E+00
#rwgt            1          17   34.040350389104582                1      981620           0
<weights>
0.13114E+02
</weights>
</event>
<event>
     15  10001  1.35417E+01  6.01282E+01 -1.00000E+00  1.87780E-01
      21    -1     0     0   507   513  0.000000000E+00  0.000000000E+00  7.051214264E+02  7.051214264E+02  0.000000000E+00  0.00000E+00  9.000E+00
      21    -1     0     0   501   502  0.000000000E+00  0.000000000E+00 -1.703611190E+02  1.703611190E+02  0.000000000E+00  0.00000E+00  9.000E+00
      -6     2     1     2     0   502  1.501617133E+02  5.766073756E-01  3.617735227E+00  2.287984576E+02  1.725884515E+02  0.00000E+00  9.000E+00
       6     2     1     2   507     0 -2.028668511E+02 -2.951732736E+01  2.744679234E+02  3.830607349E+02  1.713961896E+02  0.00000E+00  9.000E+00
     -24     2     3     3     0     0  6.528778000E+01 -1.051010497E+01 -5.882934350E+01  1.193198107E+02  8.002105380E+01  0.00000E+00  9.000E+00
      24     2     4     4     0     0 -1.456937810E+02  2.131474201E+01  1.134527181E+02  2.024343936E+02  8.016962279E+01  0.00000E+00  9.000E+00
     -11     1     6     6     0     0 -6.449897330E+01 -1.506596638E+01  8.752237329E+01  1.097600416E+02  0.000000000E+00  0.00000E+00  9.000E+00
      12     1     6     6     0     0 -8.119480773E+01  3.638070839E+01  2.593034480E+01  9.267435204E+01  3.388564683E-06  0.00000E+00  9.000E+00
      13     1     5     5     0     0  3.437340964E+01  1.177125308E+01 -7.063002557E+01  7.942728877E+01  2.336015456E-06  0.00000E+00  9.000E+00
     -14     1     5     5     0     0  3.091437036E+01 -2.228135804E+01  1.180068207E+01  3.989252196E+01  9.973764736E-07  0.00000E+00  9.000E+00
       5     1     4     4   511     0 -8.292224441E-01 -2.309838173E+00  3.357237322E+00  6.313200827E+00  4.750000000E+00  0.00000E+00  9.000E+00
      -5     1     3     3     0   512  6.163090765E+01  8.018340868E+00  5.891702057E+01  8.576969384E+01  4.750000000E+00  0.00000E+00  9.000E+00
      21     1     4     4   507   511 -5.634384761E+01 -4.852223120E+01  1.576579680E+02  1.743131405E+02  3.814697266E-06  0.00000E+00  9.000E+00
      21     1     1     2   501   513  5.270513779E+01  2.894071999E+01  2.566746488E+02  2.636233529E+02  3.814697266E-06  0.00000E+00  9.000E+00
      21     1     3     3   512   502  2.324302563E+01  3.068371474E+00  3.530058157E+00  2.370895305E+01  3.153981341E-07  0.00000E+00  9.000E+00
#rwgt            1          17   8.9245700569437307                1     1022378           0
<weights>
0.12315E+02
</weights>
</event>
<event>
     15  10001  1.35417E+01  2.93549E+01 -1.00000E+00  5.71035E-01
      21    -1     0     0   512   501  0.000000000E+00  0.000000000E+00  1.755300689E+03  1.755300689E+03  0.000000000E+00  0.00000E+00  9.000E+00
      21    -1     0     0   501   502  0.000000000E+00  0.000000000E+00 -5.213929508E+01  5.213929508E+01  0.000000000E+00  0.00000E+00  9.000E+00
      -6     2     1     2     0   502  2.663152575E+01 -6.567938322E+01  3.597028648E+02  4.052058956E+02  1.725764971E+02  0.00000E+00  9.000E+00
       6     2     1     2   507     0 -4.535828234E+01  4.307371694E+01  1.357389707E+03  1.369741239E+03  1.725442750E+02  0.00000E+00  9.000E+00
     -24     2     3     3     0     0  7.428801205E+01 -5.476498093E+01  3.158068658E+02  3.390438573E+02  8.184649551E+01  0.00000E+00  9.000E+00
      24     2     4     4     0     0 -1.827061917E+01  4.816145721E+01  1.286193682E+03  1.289790311E+03  8.131123215E+01  0.00000E+00  9.000E+00
     -11     1     6     6     0     0  1.060247291E+01  8.810452291E+00  3.459638852E+01  3.724173197E+01  1.066240300E-06  0.00000E+00  9.000E+00
      12     1     6     6     0     0 -2.887309208E+01  3.935100492E+01  1.251597294E+03  1.252548579E+03  2.157918644E-05  0.00000E+00  9.000E+00
      13     1     5     5     0     0  6.828608891E+00 -3.315757239E+01  3.218855651E+01  4.671357058E+01  6.743495762E-07  0.00000E+00  9.000E+00
     -14     1     5     5     0     0  6.745940316E+01 -2.160740854E+01  2.836183093E+02  2.923302867E+02  5.394796609E-06  0.00000E+00  9.000E+00
       5     1     4     4   511     0 -2.873773491E+01 -8.438118736E-01  4.677687971E+01  5.511087372E+01  4.750000000E+00  0.00000E+00  9.000E+00
      -5     1     3     3     0   513 -4.686162024E+01 -1.080057610E+01  4.399717004E+01  6.535271507E+01  4.750000000E+00  0.00000E+00  9.000E+00
      21     1     1     2   512   507  1.872675659E+01  2.260566628E+01 -1.393117763E+01  3.249284952E+01  6.529361695E-07  0.00000E+00  9.000E+00
      21     1     4     4   507   511  1.650071745E+00 -4.243928402E+00  2.441914489E+01  2.484005439E+01  5.840038640E-07  0.00000E+00  9.000E+00
      21     1     3     3   513   502 -7.948660601E-01 -1.138261855E-01 -1.011710604E-01  8.093231972E-01  2.396233441E-08  0.00000E+00  9.000E+00
#rwgt            1          17   13.276679283964063                1     1038104           0
<weights>
0.14165E+02
</weights>
</event>
<event>
     14  10001  1.35417E+01  1.03052E+01 -1.00000E+00  7.52349E-01
      21    -1     0     0   502   511  0.000000000E+00  0.000000000E+00  5.459609053E+02  5.459609053E+02  0.000000000E+00  0.00000E+00  9.000E+00
      21    -1     0     0   507   502  0.000000000E+00  0.000000000E+00 -1.560319406E+02  1.560319406E+02  0.000000000E+00  0.00000E+00  9.000E+00
      -6     2     1     2     0   501 -3.716934322E+00  1.501019712E+02  4.019978819E+02  4.631418987E+02  1.742231440E+02  0.00000E+00  9.000E+00
       6     2     1     2   507     0  1.348933632E+01 -1.468312996E+02 -1.377966152E+01  2.284047144E+02  1.738891652E+02  0.00000E+00  9.000E+00
     -24     2     3     3     0     0 -3.792503909E+01  1.201241306E+02  2.055103480E+02  2.614025152E+02  1.011368207E+02  0.00000E+00  9.000E+00
      24     2     4     4     0     0 -2.066434743E+01 -6.186303000E+01  5.249277827E+01  1.152153629E+02  7.915199517E+01  0.00000E+00  9.000E+00
     -11     1     6     6     0     0  1.046464265E+01 -6.301943445E+01  5.454036898E+01  8.399767683E+01  2.132480600E-06  0.00000E+00  9.000E+00
      12     1     6     6     0     0 -3.112899009E+01  1.156404451E+00 -2.047590709E+00  3.121768606E+01  1.318731719E-06  0.00000E+00  9.000E+00
      13     1     5     5     0     0 -7.289568993E+01  7.719518466E+01  1.346108874E+02  1.714437784E+02  2.697398305E-06  0.00000E+00  9.000E+00
     -14     1     5     5     0     0  3.497065083E+01  4.292894596E+01  7.089946058E+01  8.995873683E+01  9.536743164E-07  0.00000E+00  9.000E+00
       5     1     4     4   512     0  2.758392537E+01 -6.987280816E+01 -5.539737216E+01  9.345861973E+01  4.750000000E+00  0.00000E+00  9.000E+00
      -5     1     3     3     0   501  3.420810477E+01  2.997784060E+01  1.964875339E+02  2.017393834E+02  4.750000000E+00  0.00000E+00  9.000E+00
      21     1     1     2   501   511 -9.772402002E+00 -3.270671602E+00  1.710744409E+00  1.044623282E+01  1.837138534E-07  0.00000E+00  9.000E+00
      21     1     4     4   507   512  6.569758383E+00 -1.509546145E+01 -1.087506763E+01  1.973073181E+01  3.576278687E-07  0.00000E+00  9.000E+00
#rwgt            1          17   19.437194233326043                1     1075505           0
<weights>
0.34602E+01
</weights>
</event>
<event>
     15  10001  1.35417E+01  4.51063E+01 -1.00000E+00  6.38357E-01
      21    -1     0     0   502   512  0.000000000E+00  0.000000000E+00  8.562599910E+01  8.562599910E+01  0.000000000E+00  0.00000E+00  9.000E+00
      21    -1     0     0   507   502  0.000000000E+00  0.000000000E+00 -1.702469163E+03  1.702469163E+03  0.000000000E+00  0.00000E+00  9.000E+00
      -6     2     1     2     0   501  3.092947466E+01  6.345257761E+01 -6.032118084E+01  1.958228965E+02  1.724096863E+02  0.00000E+00  9.000E+00
       6     2     1     2   507     0  4.854468062E-02 -3.066626682E+01 -4.180761157E+02  4.529331708E+02  1.715237490E+02  0.00000E+00  9.000E+00
     -24     2     3     3     0     0  2.640891944E+01  8.217591043E+01 -9.695266956E+01  1.535866867E+02  8.208982217E+01  0.00000E+00  9.000E+00
      24     2     4     4     0     0 -5.715562141E+01 -3.568293169E+01 -1.905238086E+02  2.180690347E+02  8.194355097E+01  0.00000E+00  9.000E+00
     -11     1     6     6     0     0 -4.117946844E+01 -5.370224092E+01 -1.790133082E+02  1.913777516E+02  1.907348633E-06  0.00000E+00  9.000E+00
      12     1     6     6     0     0 -1.597615297E+01  1.801930923E+01 -1.151050040E+01  2.669128300E+01  6.078504936E-07  0.00000E+00  9.000E+00
      13     1     5     5     0     0 -5.551318185E-01 -9.987991943E+00 -4.152041639E+01  4.270846674E+01  0.000000000E+00  0.00000E+00  9.000E+00
     -14     1     5     5     0     0  2.696405126E+01  9.216390237E+01 -5.543225317E+01  1.108782199E+02  5.993750138E-06  0.00000E+00  9.000E+00
       5     1     4     4   511     0  3.903621408E+01  6.371701349E+00 -1.498837938E+02  1.550875196E+02  4.750000000E+00  0.00000E+00  9.000E+00
      -5     1     3     3     0   514  3.447299256E+00 -1.852920917E+01  3.615021609E+01  4.104407494E+01  4.750000000E+00  0.00000E+00  9.000E+00
      21     1     1     2   501   512 -3.097801934E+01 -3.278631080E+01 -1.138445867E+03  1.139339094E+03  0.000000000E+00  0.00000E+00  9.000E+00
      21     1     4     4   507   511  1.816795201E+01 -1.355036475E+00 -7.766851330E+01  7.977661664E+01  9.536743164E-07  0.00000E+00  9.000E+00
      21     1     3     3   514   501  1.073255967E+00 -1.941236390E-01  4.812726359E-01  1.192134937E+00  3.871435242E-08  0.00000E+00  9.000E+00
#rwgt            1          17   40.645308011989094                1     1122647           0
<weights>
0.11917E+02
</weights>
</event>
<event>
     15  10001  1.35417E+01  3.00831E+01 -1.00000E+00  3.65039E-01
      21    -1     0     0   507   511  0.000000000E+00  0.000000000E+00  7.498208331E+01  7.498208331E+01  0.000000000E+00  0.00000E+00  9.000E+00
      21    -1     0     0   501   502  0.000000000E+00  0.000000000E+00 -5.626100091E+02  5.626100091E+02  0.000000000E+00  0.00000E+00  9.000E+00
      -6     2     1     2     0   502  2.756603437E+01  2.215597300E+01 -3.012596394E+02  3.492475965E+02  1.731061521E+02  0.00000E+00  9.000E+00
       6     2     1     2   507     0 -4.770706677E+01  1.897263237E-01 -1.269764730E+02  2.217683819E+02  1.754485403E+02  0.00000E+00  9.000E+00
     -24     2     3     3     0     0  1.916204303E+01  6.147582696E+01 -2.869959603E+02  3.060902903E+02  8.472380662E+01  0.00000E+00  9.000E+00
      24     2     4     4     0     0  3.288388257E+01 -3.235868751E+01 -5.744228400E+01  1.099574234E+02  8.162465667E+01  0.00000E+00  9.000E+00
     -11     1     6     6     0     0  1.095963704E+01  1.030697107E+01 -6.006128121E+01  6.191691850E+01  6.743495762E-07  0.00000E+00  9.000E+00
      12     1     6     6     0     0  2.192424552E+01 -4.266565858E+01  2.618997202E+00  4.804050489E+01  4.053554090E-07  0.00000E+00  9.000E+00
      13     1     5     5     0     0  3.984420632E+01  5.783531971E+00 -6.656507818E+01  7.779408494E+01  1.348699152E-06  0.00000E+00  9.000E+00
     -14     1     5     5     0     0 -2.068216329E+01  5.569229499E+01 -2.204308821E+02  2.282962054E+02  2.697398305E-06  0.00000E+00  9.000E+00
       5     1     4     4   513     0 -8.013199819E+01  3.309077204E+01 -6.871744421E+01  1.107284334E+02  4.750000000E+00  0.00000E+00  9.000E+00
      -5     1     3     3     0   512  8.203699936E+00 -3.347046333E+01 -1.320806706E+01  3.721005433E+01  4.750000000E+00  0.00000E+00  9.000E+00
      21     1     1     2   501   511  2.014103239E+01 -2.234569933E+01 -5.939181338E+01  6.657611404E+01  1.168007728E-06  0.00000E+00  9.000E+00
      21     1     3     3   512   502  2.002914073E-01 -5.849390631E+00 -1.055612092E+00  5.947251827E+00  1.357560393E-07  0.00000E+00  9.000E+00
      21     1     4     4   507   513 -4.589511400E-01 -5.423582066E-01 -8.167447658E-01  1.082525097E+00  2.107342426E-08  0.00000E+00  9.000E+00
#rwgt            1          17   70.962855066331826                1     1159537           0
<weights>
0.13509E+02
</weights>
</event>
<event>
     13  10001  1.35417E+01  4.93437E+01 -1.00000E+00  7.52463E-01
      21    -1     0     0   512   501  0.000000000E+00  0.000000000E+00  1.219770902E+03  1.219770902E+03  0.000000000E+00  0.00000E+00  9.000E+00
      21    -1     0     0   507   502  0.000000000E+00  0.000000000E+00 -1.204647003E+02  1.204647003E+02  0.000000000E+00  0.00000E+00  9.000E+00
      -6     2     1     2     0   501  3.033599364E+01  1.347667820E+02  6.702685920E+02  7.058657003E+02  1.729278562E+02  0.00000E+00  9.000E+00
       6     2     1     2   507     0 -7.617526311E+01 -1.165030415E+02  2.576696091E+01  2.280916487E+02  1.788469585E+02  0.00000E+00  9.000E+00
     -24     2     3     3     0     0  6.457935354E+01  5.427133847E+01  4.952733817E+02  5.101669260E+02  8.864930191E+01  0.00000E+00  9.000E+00
      24     2     4     4     0     0 -9.076829585E+01 -4.934189124E+01  6.851694669E+01  1.470132886E+02  7.902423218E+01  0.00000E+00  9.000E+00
     -11     1     6     6     0     0 -6.182077146E+01 -6.666174405E+01  6.755478353E+01  1.132662557E+02  0.000000000E+00  0.00000E+00  9.000E+00
      12     1     6     6     0     0 -2.894752439E+01  1.731985281E+01  9.621631553E-01  3.374703287E+01  7.386979197E-07  0.00000E+00  9.000E+00
      13     1     5     5     0     0 -1.595729848E+01 -1.039690097E+01  7.257570091E+01  7.503308129E+01  9.536743164E-07  0.00000E+00  9.000E+00
     -14     1     5     5     0     0  8.053665202E+01  6.466823945E+01  4.226976808E+02  4.351338448E+02  1.078959322E-05  0.00000E+00  9.000E+00
       5     1     4     4   507     0  1.459303274E+01 -6.716115022E+01 -4.274998578E+01  8.107836017E+01  4.750000000E+00  0.00000E+00  9.000E+00
      -5     1     3     3     0   501 -3.424335990E+01  8.049544354E+01  1.749952103E+02  1.956987743E+02  4.750000000E+00  0.00000E+00  9.000E+00
      21     1     1     2   512   502  4.583926947E+01 -1.826374055E+01  4.032706488E+02  4.062782532E+02  5.394796609E-06  0.00000E+00  9.000E+00
#rwgt            1          17   20.632566333820868                1     1205249           0
<weights>
0.19169E+02
</weights>
</event>
<event>
     13  10001  1.35417E+01  1.25560E+01 -1.00000E+00  7.52599E-01
      21    -1     0     0   502   511  0.000000000E+00  0.000000000E+00  2.396438266E+02  2.396438266E+02  0.000000000E+00  0.00000E+00  9.000E+00
      21    -1     0     0   507   502  0.000000000E+00  0.000000000E+00 -2.390220062E+02  2.390220062E+02  0.000000000E+00  0.00000E+00  9.000E+00
      -6     2     1     2     0   501  3.691744380E+01 -1.235986292E+02  7.608155437E+01  2.285758803E+02  1.726818210E+02  0.00000E+00  9.000E+00
       6     2     1     2   507     0 -3.204263206E+01  1.120275306E+02 -4.053328837E+01  2.129751211E+02  1.736045992E+02  0.00000E+00  9.000E+00
     -24     2     3     3     0     0 -3.164828575E+01 -7.548066888E+01  8.716025350E+01  1.439478858E+02  8.015696264E+01  0.00000E+00  9.000E+00
      24     2     4     4     0     0 -5.656797851E+01  1.396525053E+02 -4.034776976E+01  1.757296011E+02  8.093325487E+01  0.00000E+00  9.000E+00
     -11     1     6     6     0     0  1.945697980E+01  1.391434412E+01 -2.882187060E+00  2.409336086E+01  5.794233708E-07  0.00000E+00  9.000E+00
      12     1     6     6     0     0 -7.602495831E+01  1.257381612E+02 -3.746558270E+01  1.516362402E+02  3.015782986E-06  0.00000E+00  9.000E+00
      13     1     5     5     0     0  1.636998853E+01 -4.842398807E+01  1.524528554E+01  5.334114618E+01  1.039242493E-06  0.00000E+00  9.000E+00
     -14     1     5     5     0     0 -4.801827428E+01 -2.705668081E+01  7.191496796E+01  9.060673958E+01  0.000000000E+00  0.00000E+00  9.000E+00
       5     1     4     4   507     0  2.452534645E+01 -2.762497469E+01 -1.855186097E-01  3.724552003E+01  4.750000000E+00  0.00000E+00  9.000E+00
      -5     1     3     3     0   501  6.856572955E+01 -4.811796036E+01 -1.107869914E+01  8.462799449E+01  4.750000000E+00  0.00000E+00  9.000E+00
      21     1     1     2   501   511 -4.874811743E+00  1.157109863E+01 -3.492644558E+01  3.711483146E+01  4.768371582E-07  0.00000E+00  9.000E+00
#rwgt            1          17   12.312435780055299                1     1256739           0
<weights>
0.13208E+02
</weights>
</event>
<event>
     14  10001 -1.35417E+01  6.87720E+00 -1.00000E+00  7.52653E-01
      21    -1     0     0   512   501  0.000000000E+00  0.000000000E+00  9.832047714E+02  9.832047714E+02  0.000000000E+00  0.00000E+00  9.000E+00
      21    -1     0     0   507   502  0.000000000E+00  0.000000000E+00 -1.418405492E+02  1.418405492E+02  0.000000000E+00  0.00000E+00  9.000E+00
      -6     2     1     2     0   501 -1.540974316E+02 -4.739797989E+01  8.453000137E+02  8.774683753E+02  1.715402270E+02  0.00000E+00  9.000E+00
       6     2     1     2   507     0  1.544172107E+02  5.426774370E+01  3.510207529E+00  2.374409296E+02  1.719773546E+02  0.00000E+00  9.000E+00
     -24     2     3     3     0     0 -1.811505007E+02 -3.710369636E+01  6.700978822E+02  6.998277543E+02  8.084259894E+01  0.00000E+00  9.000E+00
      24     2     4     4     0     0  4.429458071E+01  8.317512525E+01 -2.042854440E+01  1.206807014E+02  7.256993129E+01  0.00000E+00  9.000E+00
     -11     1     6     6     0     0 -1.256035427E+01  5.320676947E+01 -9.269309265E+00  5.544946267E+01  2.132480600E-06  0.00000E+00  9.000E+00
      12     1     6     6     0     0  5.685493497E+01  2.996835579E+01 -1.115923514E+01  6.523123874E+01  2.044013524E-06  0.00000E+00  9.000E+00
      13     1     5     5     0     0  4.417663444E+00  5.806674361E+00  6.633352550E+01  6.673357343E+01  1.348699152E-06  0.00000E+00  9.000E+00
     -14     1     5     5     0     0 -1.855681641E+02 -4.291037073E+01  6.037643567E+02  6.330941809E+02  1.321449896E-05  0.00000E+00  9.000E+00
       5     1     4     4   511     0  1.024094562E+02 -2.647352364E+01  1.996360124E+01  1.077480953E+02  4.750000000E+00  0.00000E+00  9.000E+00
      -5     1     3     3     0   501  2.705306913E+01 -1.029428352E+01  1.752021315E+02  1.776406209E+02  4.750000000E+00  0.00000E+00  9.000E+00
      21     1     1     2   512   502 -3.197791647E-01 -6.869763811E+00 -7.445999027E+00  1.013601574E+01  3.153981341E-07  0.00000E+00  9.000E+00
      21     1     4     4   507   511  7.713173847E+00 -2.433857915E+00  3.975150693E+00  9.012132832E+00  1.632340424E-07  0.00000E+00  9.000E+00
#rwgt            1          17  -53.836459480594527                1     1301156           0
<weights>
-.13966E+02
</weights>
</event>
<event>
     15  10001  1.35417E+01  1.20926E+02 -1.00000E+00  3.33334E-01
       2    -1     0     0   502     0  0.000000000E+00  0.000000000E+00  1.060857913E+03  1.060857913E+03  0.000000000E+00  0.00000E+00  9.000E+00
      21    -1     0     0   507   502  0.000000000E+00  0.000000000E+00 -8.625714586E+02  8.625714586E+02  0.000000000E+00  0.00000E+00  9.000E+00
      -6     2     1     2     0   501  1.460374797E+02 -4.136745374E+02  7.059464073E+02  8.432838740E+02  1.425264673E+02  0.00000E+00  9.000E+00
       6     2     1     2   507     0 -1.646344294E+02  5.331615748E+02 -6.625917728E+02  8.836083064E+02  1.742699676E+02  0.00000E+00  9.000E+00
     -24     2     3     3     0     0  9.729027446E+01 -2.348830513E+02  3.390197998E+02  4.320425437E+02  8.420742040E+01  0.00000E+00  9.000E+00
      24     2     4     4     0     0 -1.605511005E+02  2.968584260E+02 -3.714735844E+02  5.085493779E+02  8.202600181E+01  0.00000E+00  9.000E+00
     -11     1     6     6     0     0 -9.202554984E+01  1.282495248E+02 -1.207866737E+02  1.987613216E+02  3.814697266E-06  0.00000E+00  9.000E+00
      12     1     6     6     0     0 -6.852555062E+01  1.686089012E+02 -2.506869106E+02  3.097880563E+02  8.529922400E-06  0.00000E+00  9.000E+00
      13     1     5     5     0     0  4.529626650E+01 -3.486298908E+01  4.546548968E+01  7.303622744E+01  9.536743164E-07  0.00000E+00  9.000E+00
     -14     1     5     5     0     0  5.199400796E+01 -2.000200622E+02  2.935543101E+02  3.590063163E+02  5.394796609E-06  0.00000E+00  9.000E+00
       5     1     4     4   512     0 -4.328942490E+00  1.260648626E+02 -1.541020598E+02  1.992011462E+02  4.750000000E+00  0.00000E+00  9.000E+00
      -5     1     3     3     0   511  4.904937478E+01 -1.737718365E+02  3.584003850E+02  4.013426103E+02  4.750000000E+00  0.00000E+00  9.000E+00
       2     1     1     2   501     0  1.859694972E+01 -1.194870374E+02  1.549318195E+02  1.965371907E+02  0.000000000E+00  0.00000E+00  9.000E+00
      21     1     4     4   507   512  2.456135844E-01  1.102382863E+02 -1.370161287E+02  1.758577823E+02  3.814697266E-06  0.00000E+00  9.000E+00
      21     1     3     3   511   501 -3.021695883E-01 -5.019649712E+00  8.526222440E+00  9.898720058E+00  1.192092896E-07  0.00000E+00  9.000E+00
#rwgt            1          17   1.4206511190687545                1     1344682           0
<weights>
0.35829E+01
</weights>
</event>
<event>
     13  10001  1.35417E+01  6.54781E+01 -1.00000E+00  1.32707E-01
      21    -1     0     0   511   501  0.000000000E+00  0.000000000E+00  1.265179790E+03  1.265179790E+03  0.000000000E+00  0.00000E+00  9.000E+00
      21    -1     0     0   507   502  0.000000000E+00  0.000000000E+00 -9.567327447E+01  9.567327447E+01  0.000000000E+00  0.00000E+00  9.000E+00
      -6     2     1     2     0   501  2.668848434E+01 -5.725270434E+01  8.010548731E+02  8.222086705E+02  1.742068903E+02  0.00000E+00  9.000E+00
       6     2     1     2   507     0  2.948013630E+01  2.360055432E+01  1.262955103E+01  1.768478464E+02  1.723066761E+02  0.00000E+00  9.000E+00
     -24     2     3     3     0     0  1.381215023E+01 -4.149975734E+01  2.293676073E+02  2.501397518E+02  8.970725040E+01  0.00000E+00  9.000E+00
      24     2     4     4     0     0  2.897185029E+01 -4.399516159E+01 -2.397306457E+01  9.982997103E+01  8.134109009E+01  0.00000E+00  9.000E+00
     -11     1     6     6     0     0 -2.156452114E+01  9.221218342E+00 -7.401302903E+00  2.459346914E+01  1.062903076E-06  0.00000E+00  9.000E+00
      12     1     6     6     0     0  5.053637144E+01 -5.321637993E+01 -1.657176167E+01  7.523650188E+01  1.846782373E-06  0.00000E+00  9.000E+00
      13     1     5     5     0     0 -1.974468823E+01  1.252848741E+01  1.305215193E+02  1.325997086E+02  2.697398305E-06  0.00000E+00  9.000E+00
     -14     1     5     5     0     0  3.355683847E+01 -5.402824475E+01  9.884608795E+01  1.175400431E+02  3.015782986E-06  0.00000E+00  9.000E+00
       5     1     4     4   507     0  5.082860104E-01  6.759571591E+01  3.660261560E+01  7.701787541E+01  4.750000000E+00  0.00000E+00  9.000E+00
      -5     1     3     3     0   501  1.287633410E+01 -1.575294700E+01  5.716872658E+02  5.720689187E+02  4.750000000E+00  0.00000E+00  9.000E+00
      21     1     1     2   511   502 -5.616862064E+01  3.365215002E+01  3.558220918E+02  3.617965480E+02  3.814697266E-06  0.00000E+00  9.000E+00
#rwgt            2         113   4.7932547997295778                1     1375533           0
<weights>
0.13542E+02
</weights>
</event>
<event>
     15  10001 -1.35417E+01  1.50030E+01 -1.00000E+00  4.13890E-01
      21    -1     0     0   502   512  0.000000000E+00  0.000000000E+00  3.411099111E+02  3.411099111E+02  0.000000000E+00  0.00000E+00  9.000E+00
      21    -1     0     0   507   502  0.000000000E+00  0.000000000E+00 -1.092180240E+02  1.092180240E+02  0.000000000E+00  0.00000E+00  9.000E+00
      -6     2     1     2     0   501 -7.590114940E+01 -1.439754038E+00  1.099798351E+02  2.172972710E+02  1.713460898E+02  0.00000E+00  9.000E+00
       6     2     1     2   507     0  7.255648740E+01  1.606517233E+01  1.101478837E+02  2.139653741E+02  1.677083523E+02  0.00000E+00  9.000E+00
     -24     2     3     3     0     0 -3.179406303E+01 -4.998847569E+01  1.133285226E+02  1.510208073E+02  8.033816066E+01  0.00000E+00  9.000E+00
      24     2     4     4     0     0  7.162499932E+01  5.789302110E+01  1.171455520E+02  1.697957120E+02  8.139877783E+01  0.00000E+00  9.000E+00
     -11     1     6     6     0     0  2.670247911E+01  1.744172361E+01  1.028437994E+02  1.076758245E+02  1.348699152E-06  0.00000E+00  9.000E+00
      12     1     6     6     0     0  4.492252022E+01  4.045129749E+01  1.430175264E+01  6.211988747E+01  8.920806376E-07  0.00000E+00  9.000E+00
      13     1     5     5     0     0  4.152214384E+00  1.983764920E+01  1.519701197E+01  2.533223999E+01  1.685873940E-07  0.00000E+00  9.000E+00
     -14     1     5     5     0     0 -3.594627741E+01 -6.982612488E+01  9.813151061E+01  1.256885673E+02  1.348699152E-06  0.00000E+00  9.000E+00
       5     1     4     4   513     0  9.907977687E-01 -4.226769050E+01 -7.798457165E+00  4.325410703E+01  4.750000000E+00  0.00000E+00  9.000E+00
      -5     1     3     3     0   511 -4.327777554E+01  4.728673553E+01 -2.091021400E+00  6.431124384E+01  4.750000000E+00  0.00000E+00  9.000E+00
      21     1     1     2   501   512  3.344662005E+00 -1.462541829E+01  1.176416833E+01  1.906528994E+01  2.920019320E-07  0.00000E+00  9.000E+00
      21     1     3     3   511   501 -8.293108272E-01  1.261986117E+00 -1.257666061E+00  1.965219919E+00  8.815645848E-08  0.00000E+00  9.000E+00
      21     1     4     4   507   513 -5.930969359E-02  4.398417312E-01  8.007888200E-01  9.155550898E-01  1.053671213E-08  0.00000E+00  9.000E+00
#rwgt            1          17  -21.414025613965208                1     1377555           0
<weights>
-.13061E+02
</weights>
</event>
<event>
     15  10001 -1.35417E+01  1.55246E+01 -1.00000E+00  1.36577E-01
      21    -1     0     0   502   501  0.000000000E+00  0.000000000E+00  3.192121860E+02  3.192121860E+02  0.000000000E+00  0.00000E+00  9.000E+00
       1    -1     0     0   507     0  0.000000000E+00  0.000000000E+00 -1.903447973E+02  1.903447973E+02  0.000000000E+00  0.00000E+00  9.000E+00
      -6     2     1     2     0   501 -4.251444557E+01 -8.519787714E+01  2.025705267E+02  2.810813113E+02  1.700168490E+02  0.00000E+00  9.000E+00
       6     2     1     2   507     0  4.450885074E+01  6.980191179E+01 -4.354264887E+01  1.945541670E+02  1.705931327E+02  0.00000E+00  9.000E+00
     -24     2     3     3     0     0 -5.768571421E+01 -1.303392088E+01  6.153560529E+01  1.173762752E+02  8.057936800E+01  0.00000E+00  9.000E+00
      24     2     4     4     0     0 -4.185880062E+00  7.635165734E+01  2.121383466E+01  1.130445163E+02  8.051048827E+01  0.00000E+00  9.000E+00
     -11     1     6     6     0     0  2.428857610E+01  4.606901625E+01  4.168693385E+01  6.670899221E+01  2.185142372E-06  0.00000E+00  9.000E+00
      12     1     6     6     0     0 -2.847445616E+01  3.028264109E+01 -2.047309920E+01  4.633552412E+01  7.907449699E-07  0.00000E+00  9.000E+00
      13     1     5     5     0     0 -3.556263124E+00 -3.920494566E+01  1.889018381E+01  4.366364409E+01  7.539457465E-07  0.00000E+00  9.000E+00
     -14     1     5     5     0     0 -5.412945109E+01  2.617102478E+01  4.264542149E+01  7.371263112E+01  4.768371582E-07  0.00000E+00  9.000E+00
       5     1     4     4   512     0  4.584734471E+01 -6.756487014E+00 -5.999412654E+01  7.595713827E+01  4.750000000E+00  0.00000E+00  9.000E+00
      -5     1     3     3     0   511  1.679862773E+01 -1.217496594E+01  2.329675947E+01  3.155511355E+01  4.750000000E+00  0.00000E+00  9.000E+00
      21     1     3     3   511   501 -1.627359089E+00 -5.998899033E+01  1.177381619E+02  1.321499226E+02  1.348699152E-06  0.00000E+00  9.000E+00
       1     1     1     2   502     0 -1.994405166E+00  1.539596536E+01 -3.016048913E+01  3.392150506E+01  7.539457465E-07  0.00000E+00  9.000E+00
      21     1     4     4   507   512  2.847386090E+00  2.067414604E-01 -4.762356982E+00  5.552512368E+00  5.960464478E-08  0.00000E+00  9.000E+00
#rwgt            1          17  -15.778333304960977                1     1415586           0
<weights>
-.15543E+02
</weights>
</event>
<event>
     15  10001  1.35417E+01  3.51474E+01 -1.00000E+00  4.78660E-01
      21    -1     0     0   502   512  0.000000000E+00  0.000000000E+00  1.255005979E+02  1.255005979E+02  0.000000000E+00  0.00000E+00  9.000E+00
      21    -1     0     0   507   502  0.000000000E+00  0.000000000E+00 -5.679721574E+02  5.679721574E+02  0.000000000E+00  0.00000E+00  9.000E+00
      -6     2     1     2     0   501 -3.252499779E+00  7.851847999E+01 -5.198441186E+01  1.931418446E+02  1.685991180E+02  0.00000E+00  9.000E+00
       6     2     1     2   507     0 -2.959758870E+01 -6.601990286E+01 -4.166867022E+02  4.564930343E+02  1.718238567E+02  0.00000E+00  9.000E+00
     -24     2     3     3     0     0  2.053704409E+01  8.785709592E+01  1.260774614E+01  1.233011304E+02  8.308774887E+01  0.00000E+00  9.000E+00
      24     2     4     4     0     0 -8.282790670E+01 -5.843657293E+01 -3.106494472E+02  3.370872670E+02  8.276141231E+01  0.00000E+00  9.000E+00
     -11     1     6     6     0     0 -1.268515541E+00 -9.567216201E+00  2.377061099E+00  9.939375080E+00  5.479090306E-07  0.00000E+00  9.000E+00
      12     1     6     6     0     0 -8.155939116E+01 -4.886935673E+01 -3.130265083E+02  3.271478919E+02  6.607249480E-06  0.00000E+00  9.000E+00
      13     1     5     5     0     0  2.951194136E+01  3.549004269E+01  4.215233270E+01  6.250853513E+01  3.662655710E-06  0.00000E+00  9.000E+00
     -14     1     5     5     0     0 -8.974897267E+00  5.236705324E+01 -2.954458655E+01  6.079259528E+01  5.840038640E-07  0.00000E+00  9.000E+00
       5     1     4     4   511     0  5.238814693E+01 -8.103870833E+00 -1.057276209E+02  1.183684206E+02  4.750000000E+00  0.00000E+00  9.000E+00
      -5     1     3     3     0   513 -2.300414023E+01 -7.794292182E+00 -6.155769074E+01  6.634646371E+01  4.750000000E+00  0.00000E+00  9.000E+00
      21     1     1     2   501   512  3.285008848E+01 -1.249857713E+01  2.619955462E+01  4.383787639E+01  3.371747881E-07  0.00000E+00  9.000E+00
      21     1     4     4   507   511  8.421710707E-01  5.205409022E-01 -3.096341356E-01  1.037346731E+00  5.268356064E-09  0.00000E+00  9.000E+00
      21     1     3     3   513   501 -7.854036364E-01 -1.544323754E+00 -3.034467268E+00  3.494250468E+00  7.300048300E-08  0.00000E+00  9.000E+00
#rwgt            1          17   19.722425420204196                1     1431807           0
<weights>
0.23609E+02
</weights>
</event>
<event>
     14  10001  1.35417E+01  4.11731E+01 -1.00000E+00  7.52161E-01
      21    -1     0     0   507   501  0.000000000E+00  0.000000000E+00  3.316646499E+02  3.316646499E+02  0.000000000E+00  0.00000E+00  9.000E+00
       2    -1     0     0   501     0  0.000000000E+00  0.000000000E+00 -2.766418661E+03  2.766418661E+03  0.000000000E+00  0.00000E+00  9.000E+00
      -6     2     1     2     0   502 -2.704484832E+01  8.194712731E+01  1.247326279E+02  2.277715390E+02  1.699261312E+02  0.00000E+00  9.000E+00
       6     2     1     2   507     0 -1.020433179E+01 -6.440501965E+01  1.003356247E+02  2.101708542E+02  1.727785155E+02  0.00000E+00  9.000E+00
     -24     2     3     3     0     0 -1.894552764E+01  1.221478811E+02  1.096591578E+02  1.838230283E+02  8.054028156E+01  0.00000E+00  9.000E+00
      24     2     4     4     0     0 -2.256751097E+01 -4.283363617E+00 -2.164144797E+01  7.341332739E+01  6.628366777E+01  0.00000E+00  9.000E+00
     -11     1     6     6     0     0 -4.094649899E+01 -1.552031564E+01 -2.669747678E+01  5.128597511E+01  2.050954167E-06  0.00000E+00  9.000E+00
      12     1     6     6     0     0  1.837898802E+01  1.123695202E+01  5.056028809E+00  2.212735227E+01  6.136673773E-07  0.00000E+00  9.000E+00
      13     1     5     5     0     0 -2.162457830E+01  1.761406076E+01  6.382143864E+01  6.964950504E+01  1.348699152E-06  0.00000E+00  9.000E+00
     -14     1     5     5     0     0  2.679050659E+00  1.045338203E+02  4.583771920E+01  1.141735232E+02  3.693564745E-06  0.00000E+00  9.000E+00
       5     1     4     4   512     0  1.134796735E+01 -5.750500149E+01  1.184990434E+02  1.322882737E+02  4.750000000E+00  0.00000E+00  9.000E+00
      -5     1     3     3     0   502 -8.099320680E+00 -4.020075378E+01  1.507347003E+01  4.394851077E+01  4.750000000E+00  0.00000E+00  9.000E+00
       2     1     1     2   502     0  3.724918011E+01 -1.754210766E+01 -2.659822264E+03  2.660140918E+03  5.285799584E-05  0.00000E+00  9.000E+00
      21     1     4     4   507   512  1.015211823E+00 -2.616654549E+00  3.478029292E+00  4.469253163E+00  4.214684851E-08  0.00000E+00  9.000E+00
#rwgt            1          17   91.590574297221949                1     1471076           0
<weights>
0.14011E+02
</weights>
</event>
<event>
     13  10001  1.35417E+01  7.09230E+00 -1.00000E+00  2.14753E-01
      -1    -1     0     0     0   511  0.000000000E+00  0.000000000E+00  1.014526593E+03  1.014526593E+03  0.000000000E+00  0.00000E+00  9.000E+00
       1    -1     0     0   507     0  0.000000000E+00  0.000000000E+00 -8.773710166E+01  8.773710166E+01  0.000000000E+00  0.00000E+00  9.000E+00
      -6     2     1     2     0   501 -6.406856164E+01  2.250733719E+02  4.566279733E+02  5.417127852E+02  1.737263145E+02  0.00000E+00  9.000E+00
       6     2     1     2   507     0  6.996702272E+01 -2.290115101E+02  4.425603798E+02  5.320531270E+02  1.728559636E+02  0.00000E+00  9.000E+00
     -24     2     3     3     0     0  6.717237276E+00  3.637108701E+01  1.368000619E+02  1.636497785E+02  8.184751562E+01  0.00000E+00  9.000E+00
      24     2     4     4     0     0  7.534696031E+01 -8.873109394E+01  2.980185078E+02  3.305029989E+02  8.286633705E+01  0.00000E+00  9.000E+00
     -11     1     6     6     0     0 -7.537431099E-01 -6.188227212E+01  1.187566035E+02  1.339145795E+02  2.336015456E-06  0.00000E+00  9.000E+00
      12     1     6     6     0     0  7.610070342E+01 -2.684882182E+01  1.792619043E+02  1.965884194E+02  2.697398305E-06  0.00000E+00  9.000E+00
      13     1     5     5     0     0  1.261136378E+01  5.628586184E+01  1.292751044E+02  1.415598720E+02  1.907348633E-06  0.00000E+00  9.000E+00
     -14     1     5     5     0     0 -5.894126500E+00 -1.991477483E+01  7.524957513E+00  2.208990650E+01  7.202056631E-07  0.00000E+00  9.000E+00
       5     1     4     4   507     0 -5.379937588E+00 -1.402804161E+02  1.445418720E+02  2.015501281E+02  4.750000000E+00  0.00000E+00  9.000E+00
      -5     1     3     3     0   501 -7.078579892E+01  1.887022849E+02  3.198279114E+02  3.780630067E+02  4.750000000E+00  0.00000E+00  9.000E+00
      21     1     1     2   501   511 -5.898461078E+00  3.938138153E+00  2.760113843E+01  2.849778269E+01  3.371747881E-07  0.00000E+00  9.000E+00
#rwgt            2           4   4.5958197097043258E-003           1     1536233           0
<weights>
0.13542E+02
</weights>
</event>
<event>
     15  10001 -1.35417E+01  1.08042E+02 -1.00000E+00  5.88436E-01
      21    -1     0     0   512   501  0.000000000E+00  0.000000000E+00  5.087185939E+02  5.087185939E+02  0.000000000E+00  0.00000E+00  9.000E+00
      21    -1     0     0   501   502  0.000000000E+00  0.000000000E+00 -4.119885502E+02  4.119885502E+02  0.000000000E+00  0.00000E+00  9.000E+00
      -6     2     1     2     0   502 -1.534189701E+02 -1.857784598E+02  2.191167379E+02  3.683776207E+02  1.721595485E+02  0.00000E+00  9.000E+00
       6     2     1     2   507     0  1.885298482E+02  8.360081036E+01  1.137826579E+02  2.926200537E+02  1.736300765E+02  0.00000E+00  9.000E+00
     -24     2     3     3     0     0 -9.120083615E+01 -6.882367737E+01  1.846894685E+02  2.313584946E+02  7.976378994E+01  0.00000E+00  9.000E+00
      24     2     4     4     0     0  8.270127097E+01  3.471801247E+01 -9.163429926E+00  1.229747131E+02  8.362996475E+01  0.00000E+00  9.000E+00
     -11     1     6     6     0     0  8.573627935E+01  1.662699425E+01  1.898812961E+01  8.937402083E+01  8.596304120E-07  0.00000E+00  9.000E+00
      12     1     6     6     0     0 -3.035008381E+00  1.809101822E+01 -2.815155954E+01  3.360069226E+01  8.259061849E-07  0.00000E+00  9.000E+00
      13     1     5     5     0     0 -7.353828909E+01 -7.712062289E+01  1.060721463E+02  1.503554809E+02  3.568322551E-06  0.00000E+00  9.000E+00
     -14     1     5     5     0     0 -1.766254707E+01  8.296945513E+00  7.861732219E+01  8.100301366E+01  9.536743164E-07  0.00000E+00  9.000E+00
       5     1     4     4   511     0  9.113719228E+01  4.440085108E+01  1.051851896E+02  1.461639832E+02  4.750000000E+00  0.00000E+00  9.000E+00
      -5     1     3     3     0   514 -5.938867562E+01 -1.100195408E+02  3.299801453E+01  1.293937619E+02  4.750000000E+00  0.00000E+00  9.000E+00
      21     1     1     2   512   507 -3.511087809E+01  1.021776494E+02 -2.361693520E+02  2.597094697E+02  5.394796609E-06  0.00000E+00  9.000E+00
      21     1     4     4   507   511  1.469138496E+01  4.481946807E+00  1.776089823E+01  2.348135739E+01  2.384185791E-07  0.00000E+00  9.000E+00
      21     1     3     3   514   502 -2.829458332E+00 -6.935241576E+00  1.429254916E+00  7.625364240E+00  9.657056180E-08  0.00000E+00  9.000E+00
#rwgt            1          17  -11.432785356102141                1     1536430           0
<weights>
-.12410E+02
</weights>
</event>
<event>
     15  10001 -1.35417E+01  3.58361E+01 -1.00000E+00  3.02659E-01
      21    -1     0     0   511   501  0.000000000E+00  0.000000000E+00  3.408554264E+02  3.408554264E+02  0.000000000E+00  0.00000E+00  9.000E+00
      21    -1     0     0   507   502  0.000000000E+00  0.000000000E+00 -3.053746998E+02  3.053746998E+02  0.000000000E+00  0.00000E+00  9.000E+00
      -6     2     1     2     0   501  1.063974165E+01  2.121426980E+02  9.331974546E+01  2.884883173E+02  1.714619663E+02  0.00000E+00  9.000E+00
       6     2     1     2   507     0  2.510591551E+01 -2.146868848E+02  1.533260033E+01  2.762659796E+02  1.713681340E+02  0.00000E+00  9.000E+00
     -24     2     3     3     0     0 -3.964421389E+00  2.362677131E+02  8.983014661E+01  2.592278546E+02  5.737139086E+01  0.00000E+00  9.000E+00
      24     2     4     4     0     0 -3.284746220E+01 -1.830552872E+02  3.513603594E+01  2.055326019E+02  8.013061519E+01  0.00000E+00  9.000E+00
     -11     1     6     6     0     0  4.741594633E+00 -3.574716341E+01 -2.299650153E+01  4.276893142E+01  8.920806376E-07  0.00000E+00  9.000E+00
      12     1     6     6     0     0 -3.758905683E+01 -1.473081238E+02  5.813253747E+01  1.627636705E+02  2.780414531E-06  0.00000E+00  9.000E+00
      13     1     5     5     0     0 -2.319241072E+01  1.871617039E+02  5.663339269E+01  1.969130074E+02  5.091227652E-06  0.00000E+00  9.000E+00
     -14     1     5     5     0     0  1.922798933E+01  4.910600919E+01  3.319675392E+01  6.231484721E+01  1.066240300E-06  0.00000E+00  9.000E+00
       5     1     4     4   512     0  5.462833133E+01 -2.647853318E+01 -2.113769841E+01  6.445721137E+01  4.750000000E+00  0.00000E+00  9.000E+00
      -5     1     3     3     0   513  1.234277210E+01 -1.782552291E+01  1.363049558E+00  2.223766386E+01  4.750000000E+00  0.00000E+00  9.000E+00
      21     1     1     2   511   502 -3.574565715E+01  2.544186786E+00 -7.317161918E+01  8.147582921E+01  1.348699152E-06  0.00000E+00  9.000E+00
      21     1     4     4   507   512  3.325046380E+00 -5.153064442E+00  1.334262804E+00  6.276166330E+00  1.182743003E-07  0.00000E+00  9.000E+00
      21     1     3     3   513   501  2.261390938E+00 -6.299492182E+00  2.126549290E+00  7.022798774E+00  3.839760639E-07  0.00000E+00  9.000E+00
#rwgt            1          17  -53.757184029196054                1     1576132           0
<weights>
-.13912E+02
</weights>
</event>
<event>
     15  10001  1.35417E+01  7.11530E+00 -1.00000E+00  1.58558E-01
      21    -1     0     0   514   501  0.000000000E+00  0.000000000E+00  4.953118828E+02  4.953118828E+02  0.000000000E+00  0.00000E+00  9.000E+00
      21    -1     0     0   507   502  0.000000000E+00  0.000000000E+00 -2.135158164E+02  2.135158164E+02  0.000000000E+00  0.00000E+00  9.000E+00
      -6     2     1     2     0   501 -3.144333009E+01 -4.533679607E+00  2.591747574E+02  3.138573987E+02  1.741426846E+02  0.00000E+00  9.000E+00
       6     2     1     2   507     0  2.432805739E+01  4.552640855E+00  1.891131046E+02  2.283265324E+02  1.255255278E+02  0.00000E+00  9.000E+00
     -24     2     3     3     0     0 -4.465664764E+01 -2.658471458E+01  2.614429194E+02  2.737608595E+02  6.238304933E+01  0.00000E+00  9.000E+00
      24     2     4     4     0     0  4.074742706E+01 -1.138112136E+01  1.169105207E+02  1.481987476E+02  8.065306068E+01  0.00000E+00  9.000E+00
     -11     1     6     6     0     0  6.281411904E+00 -1.099222209E+01  1.127749057E+02  1.134833223E+02  1.907348633E-06  0.00000E+00  9.000E+00
      12     1     6     6     0     0  3.446601515E+01 -3.888992628E-01  4.135615038E+00  3.471542532E+01  5.462855929E-07  0.00000E+00  9.000E+00
      13     1     5     5     0     0 -3.621955703E+00 -3.625769615E+01  8.754605801E+01  9.482642757E+01  1.651812370E-06  0.00000E+00  9.000E+00
     -14     1     5     5     0     0 -4.103469193E+01  9.672981577E+00  1.738968614E+02  1.789344319E+02  3.303624740E-06  0.00000E+00  9.000E+00
       5     1     4     4   512     0 -9.086543891E+00 -3.643232513E+00  1.108229693E+01  1.553120176E+01  4.750000000E+00  0.00000E+00  9.000E+00
      -5     1     3     3     0   511  1.091804523E+01  2.655094135E+01  6.648590742E+00  2.984832420E+01  4.750000000E+00  0.00000E+00  9.000E+00
      21     1     4     4   507   512 -7.332825779E+00  1.957699472E+01  6.112028695E+01  6.459658299E+01  6.743495762E-07  0.00000E+00  9.000E+00
      21     1     3     3   511   501  2.295272308E+00 -4.499906383E+00 -8.916752737E+00  1.024821505E+01  6.307962682E-07  0.00000E+00  9.000E+00
      21     1     1     2   514   502  7.115272706E+00 -1.896124795E-02 -1.664917956E+02  1.666437681E+02  3.814697266E-06  0.00000E+00  9.000E+00
#rwgt            1          17   86.756796518286393                1     1601549           0
<weights>
0.12208E+02
</weights>
</event>
<event>
     15  10001  1.35417E+01  3.34786E+01 -1.00000E+00  3.13402E-01
      21    -1     0     0   507   511  0.000000000E+00  0.000000000E+00  1.306748121E+03  1.306748121E+03  0.000000000E+00  0.00000E+00  9.000E+00
      21    -1     0     0   501   502  0.000000000E+00  0.000000000E+00 -8.518243156E+01  8.518243156E+01  0.000000000E+00  0.00000E+00  9.000E+00
      -6     2     1     2     0   502  5.085191083E+01 -1.077427501E+02  8.788207890E+01  2.278835763E+02  1.732433189E+02  0.00000E+00  9.000E+00
       6     2     1     2   507     0 -1.738352088E+01  1.085711361E+02  1.089707372E+03  1.108777374E+03  1.727287765E+02  0.00000E+00  9.000E+00
     -24     2     3     3     0     0 -1.592053100E+01 -1.083626796E+02  8.235176356E+01  1.592229375E+02  8.108142357E+01  0.00000E+00  9.000E+00
      24     2     4     4     0     0 -1.537775340E+01  3.447866915E+01  2.502659571E+02  2.659870225E+02  8.179726707E+01  0.00000E+00  9.000E+00
     -11     1     6     6     0     0 -4.256086606E+01 -4.032449488E+00  1.102232900E+02  1.182237777E+02  1.907348633E-06  0.00000E+00  9.000E+00
      12     1     6     6     0     0  2.718311266E+01  3.851111864E+01  1.400426671E+02  1.477632447E+02  3.303624740E-06  0.00000E+00  9.000E+00
      13     1     5     5     0     0  2.745665749E+01 -7.768259642E+01  5.811378965E+01  1.008249293E+02  3.754619538E-06  0.00000E+00  9.000E+00
     -14     1     5     5     0     0 -4.337718850E+01 -3.068008313E+01  2.423797391E+01  5.839800820E+01  1.430511475E-06  0.00000E+00  9.000E+00
       5     1     4     4   512     0 -1.856126930E+00  6.057717157E+01  6.352759655E+02  6.381779954E+02  4.750000000E+00  0.00000E+00  9.000E+00
      -5     1     3     3     0   513  6.688298873E+01  6.441511779E-01  6.788572969E+00  6.739730213E+01  4.750000000E+00  0.00000E+00  9.000E+00
      21     1     1     2   501   511 -3.346838995E+01 -8.283859868E-01  4.397623778E+01  5.526960140E+01  9.536743164E-07  0.00000E+00  9.000E+00
      21     1     4     4   507   512 -1.496405506E-01  1.351529537E+01  2.041654497E+02  2.046123565E+02  3.814697266E-06  0.00000E+00  9.000E+00
      21     1     3     3   513   502 -1.105468944E-01 -2.422172266E-02 -1.258257624E+00  1.263336676E+00  5.575503985E-08  0.00000E+00  9.000E+00
#rwgt            1          17   30.065594026353583                1     1617150           0
<weights>
0.78253E+01
</weights>
</event>
<event>
     15  10001  1.35417E+01  6.07488E+01 -1.00000E+00  2.80014E-01
      21    -1     0     0   507   501  0.000000000E+00  0.000000000E+00  2.810290978E+02  2.810290978E+02  0.000000000E+00  0.00000E+00  9.000E+00
       2    -1     0     0   501     0  0.000000000E+00  0.000000000E+00 -8.902612415E+02  8.902612415E+02  0.000000000E+00  0.00000E+00  9.000E+00
      -6     2     1     2     0   502 -4.910566956E+01 -4.805394785E+01  5.248916234E+01  1.927862262E+02  1.723103832E+02  0.00000E+00  9.000E+00
       6     2     1     2   507     0  7.014283556E+01  1.050439235E+02  8.412450560E+01  2.301884080E+02  1.730766520E+02  0.00000E+00  9.000E+00
     -24     2     3     3     0     0  1.024948340E+01  1.036950322E+01  6.380310599E+01  1.077789383E+02  8.563226437E+01  0.00000E+00  9.000E+00
      24     2     4     4     0     0  3.021733861E+01  1.325360394E+02  7.331349882E+01  1.746722232E+02  8.158815563E+01  0.00000E+00  9.000E+00
     -11     1     6     6     0     0  3.403804856E+01  1.492008388E+01  2.317557751E+00  3.723665837E+01  1.173318606E-06  0.00000E+00  9.000E+00
      12     1     6     6     0     0 -3.820709948E+00  1.176159556E+02  7.099594107E+01  1.374355648E+02  2.523185073E-06  0.00000E+00  9.000E+00
      13     1     5     5     0     0  7.749260375E+00 -1.307402252E+01  7.852586820E+01  7.998307995E+01  1.907348633E-06  0.00000E+00  9.000E+00
     -14     1     5     5     0     0  2.500223026E+00  2.344352575E+01 -1.472276221E+01  2.779585836E+01  6.307962682E-07  0.00000E+00  9.000E+00
       5     1     4     4   511     0  2.925876651E+01 -6.797705918E+00  1.068613302E+01  3.223414591E+01  4.750000000E+00  0.00000E+00  9.000E+00
      -5     1     3     3     0   512 -5.604070147E+01 -5.195613999E+01 -1.268753577E+01  7.761144740E+01  4.750000000E+00  0.00000E+00  9.000E+00
       2     1     1     2   502     0 -2.103716600E+01 -5.698997569E+01 -7.458458116E+02  7.483157051E+02  1.078959322E-05  0.00000E+00  9.000E+00
      21     1     4     4   507   511  1.066673044E+01 -2.069440998E+01  1.248737624E-01  2.328203892E+01  1.344115637E-06  0.00000E+00  9.000E+00
      21     1     3     3   512   502 -3.314451487E+00 -6.467311088E+00  1.373592117E+00  7.395840498E+00  1.555726902E-07  0.00000E+00  9.000E+00
#rwgt            1          17   21.855128557991744                1     1646622           0
<weights>
0.13092E+02
</weights>
</event>
<event>
     15  10001 -1.35417E+01  7.31021E+01 -1.00000E+00  1.96861E-01
      21    -1     0     0   507   511  0.000000000E+00  0.000000000E+00  3.356939876E+02  3.356939876E+02  0.000000000E+00  0.00000E+00  9.000E+00
      21    -1     0     0   501   502  0.000000000E+00  0.000000000E+00 -3.378159596E+02  3.378159596E+02  0.000000000E+00  0.00000E+00  9.000E+00
      -6     2     1     2     0   502  1.079182598E+01 -1.255081381E+01 -2.430228385E+02  2.979893643E+02  1.716495696E+02  0.00000E+00  9.000E+00
       6     2     1     2   507     0 -8.389271566E+01  1.296613909E+01  9.519777027E+01  2.125073785E+02  1.699725329E+02  0.00000E+00  9.000E+00
     -24     2     3     3     0     0 -4.506254118E+01 -6.616106566E+00 -1.999076931E+02  2.216720221E+02  8.426739679E+01  0.00000E+00  9.000E+00
      24     2     4     4     0     0 -1.051604394E+02  3.265191886E+00  2.177182726E+01  1.343920977E+02  8.073316512E+01  0.00000E+00  9.000E+00
     -11     1     6     6     0     0 -8.032359230E+01 -2.275452915E+01  4.164676444E+01  9.329577195E+01  1.581489940E-06  0.00000E+00  9.000E+00
      12     1     6     6     0     0 -2.483684713E+01  2.601972104E+01 -1.987493717E+01  4.109632570E+01  8.596304120E-07  0.00000E+00  9.000E+00
      13     1     5     5     0     0 -1.525315640E+00  1.981788203E+01 -1.466065833E+02  1.479478465E+02  0.000000000E+00  0.00000E+00  9.000E+00
     -14     1     5     5     0     0 -4.353722554E+01 -2.643398859E+01 -5.330110978E+01  7.372417557E+01  0.000000000E+00  0.00000E+00  9.000E+00
       5     1     4     4   513     0  2.133485054E+01  9.131328555E+00  7.374699374E+01  7.745797954E+01  4.750000000E+00  0.00000E+00  9.000E+00
      -5     1     3     3     0   512  5.772022562E+01 -3.222447533E+00 -4.411745152E+01  7.287606358E+01  4.750000000E+00  0.00000E+00  9.000E+00
      21     1     1     2   501   511  7.310088968E+01 -4.153252838E-01  1.457030962E+02  1.630132044E+02  1.907348633E-06  0.00000E+00  9.000E+00
      21     1     3     3   512   502 -1.865858463E+00 -2.712259711E+00  1.002306094E+00  3.441278548E+00  3.942476677E-08  0.00000E+00  9.000E+00
      21     1     4     4   507   513 -6.712676912E-02  5.696186528E-01 -3.210507349E-01  6.573012910E-01  1.825012075E-08  0.00000E+00  9.000E+00
#rwgt            1          17  -13.185126545853745                1     1666551           0
<weights>
-.13426E+02
</weights>
</event>
<event>
     15  10001 -1.35417E+01  1.82797E+01 -1.00000E+00  4.53464E-01
      21    -1     0     0   512   501  0.000000000E+00  0.000000000E+00  3.403818503E+02  3.403818503E+02  0.000000000E+00  0.00000E+00  9.000E+00
      21    -1     0     0   507   502  0.000000000E+00  0.000000000E+00 -1.818068087E+02  1.818068087E+02  0.000000000E+00  0.00000E+00  9.000E+00
      -6     2     1     2     0   501  1.901766295E+01  1.257487545E+02  1.590746148E+02  2.669929439E+02  1.726443693E+02  0.00000E+00  9.000E+00
       6     2     1     2   507     0 -1.730251022E+01 -1.439477692E+02 -2.345556689E+01  2.258508087E+02  1.715753102E+02  0.00000E+00  9.000E+00
     -24     2     3     3     0     0 -1.068848365E+01  5.371995506E+01  1.615345283E+02  1.886099623E+02  8.049991781E+01  0.00000E+00  9.000E+00
      24     2     4     4     0     0  6.357650482E+00 -8.057500648E+01 -5.879745013E+01  1.490081829E+02  1.105149177E+02  0.00000E+00  9.000E+00
     -11     1     6     6     0     0  4.028925952E+01 -8.960733856E+01 -2.763424549E+01  1.020605266E+02  3.371747881E-07  0.00000E+00  9.000E+00
      12     1     6     6     0     0 -3.393160903E+01  9.032332083E+00 -3.116320464E+01  4.694765636E+01  1.651812370E-06  0.00000E+00  9.000E+00
      13     1     5     5     0     0 -4.104369895E+00 -6.184056099E+00  1.072334356E+02  1.074899907E+02  1.907348633E-06  0.00000E+00  9.000E+00
     -14     1     5     5     0     0 -6.584113760E+00  5.990401116E+01  5.430109275E+01  8.111997153E+01  6.743495762E-07  0.00000E+00  9.000E+00
       5     1     4     4   511     0 -1.696469046E+01 -5.328635871E+01  2.877172643E+01  6.306830811E+01  4.750000000E+00  0.00000E+00  9.000E+00
      -5     1     3     3     0   514  2.830275887E+01  6.724421685E+01 -3.828650219E+00  7.321237547E+01  4.750000000E+00  0.00000E+00  9.000E+00
      21     1     1     2   512   502 -1.715152731E+00  1.819901464E+01  2.295599372E+01  2.934490638E+01  3.371747881E-07  0.00000E+00  9.000E+00
      21     1     4     4   507   511 -6.695470241E+00 -1.008640398E+01  6.570156808E+00  1.377431768E+01  2.528810911E-07  0.00000E+00  9.000E+00
      21     1     3     3   514   501  1.403387734E+00  4.784582611E+00  1.368736728E+00  5.170606167E+00  3.332000937E-08  0.00000E+00  9.000E+00
#rwgt            1          17  -9.2818665733200660                1     1687539           0
<weights>
-.11821E+02
</weights>
</event>
<event>
     15  10001  1.35417E+01  3.78753E+01 -1.00000E+00  1.56185E-01
       2    -1     0     0   507     0  0.000000000E+00  0.000000000E+00  3.534133764E+02  3.534133764E+02  0.000000000E+00  0.00000E+00  9.000E+00
      21    -1     0     0   511   502  0.000000000E+00  0.000000000E+00 -3.495432216E+02  3.495432216E+02  0.000000000E+00  0.00000E+00  9.000E+00
      -6     2     1     2     0   502 -2.770609996E+01  2.304115844E+01  2.144602485E+01  1.794933581E+02  1.745262464E+02  0.00000E+00  9.000E+00
       6     2     1     2   507     0  4.674772873E+01  9.699529543E+00  2.197039348E+02  2.831795700E+02  1.721668344E+02  0.00000E+00  9.000E+00
     -24     2     3     3     0     0  1.842534517E+01 -4.132488829E+01 -4.573831174E+00  9.069126039E+01  7.846492874E+01  0.00000E+00  9.000E+00
      24     2     4     4     0     0 -3.718425221E+01 -4.755158210E+00  7.879668822E+01  1.183178515E+02  7.990566789E+01  0.00000E+00  9.000E+00
     -11     1     6     6     0     0 -1.256196644E+01  3.515974131E+01  5.288705999E+01  6.473833118E+01  6.743495762E-07  0.00000E+00  9.000E+00
      12     1     6     6     0     0 -2.462228577E+01 -3.991489952E+01  2.590962824E+01  5.357952030E+01  1.066240300E-06  0.00000E+00  9.000E+00
      13     1     5     5     0     0 -2.049280233E+01 -4.374248768E+00 -2.557486271E+01  3.306300958E+01  9.536743164E-07  0.00000E+00  9.000E+00
     -14     1     5     5     0     0  3.891814750E+01 -3.695063952E+01  2.100103154E+01  5.762825081E+01  1.469710828E-06  0.00000E+00  9.000E+00
       5     1     4     4   513     0  8.301535564E+01  1.478172108E+01  1.379580873E+02  1.617561278E+02  4.750000000E+00  0.00000E+00  9.000E+00
      -5     1     3     3     0   512 -3.859484759E+01  2.975149026E+01  1.024151744E+01  5.002164144E+01  4.750000000E+00  0.00000E+00  9.000E+00
       2     1     1     2   511     0 -1.904162876E+01 -3.274068798E+01 -2.372798048E+02  2.402836700E+02  5.394796609E-06  0.00000E+00  9.000E+00
      21     1     3     3   512   502 -7.536597553E+00  3.461455647E+01  1.577833859E+01  3.878045630E+01  3.371747881E-07  0.00000E+00  9.000E+00
      21     1     4     4   507   513  9.166252944E-01 -3.270333321E-01  2.949159297E+00  3.105590650E+00  5.960464478E-08  0.00000E+00  9.000E+00
#rwgt            1           8  0.79929526727626876                1     1725410           0
<weights>
0.15630E+02
</weights>
</event>
<event>
     15  10001 -1.35417E+01  8.12384E+01 -1.00000E+00  5.41708E-01
      21    -1     0     0   507   512  0.000000000E+00  0.000000000E+00  1.312647363E+03  1.312647363E+03  0.000000000E+00  0.00000E+00  9.000E+00
      21    -1     0     0   501   502  0.000000000E+00  0.000000000E+00 -5.262473160E+02  5.262473160E+02  0.000000000E+00  0.00000E+00  9.000E+00
      -6     2     1     2     0   502  2.959194438E+02 -1.282746537E+02  1.191990787E+02  3.827495424E+02  1.681252148E+02  0.00000E+00  9.000E+00
       6     2     1     2   507     0 -3.626087495E+02  8.188267534E+01 -2.861546613E+02  4.993344783E+02  1.710571639E+02  0.00000E+00  9.000E+00
     -24     2     3     3     0     0  9.565328758E+01 -9.882179621E+01  8.006604723E+01  1.762920925E+02  7.584873856E+01  0.00000E+00  9.000E+00
      24     2     4     4     0     0 -1.518256141E+02  4.393511520E+01 -5.557247148E+01  1.845437677E+02  7.737435733E+01  0.00000E+00  9.000E+00
     -11     1     6     6     0     0 -8.302853551E+00  7.774620110E+00 -3.289812848E+01  3.480903550E+01  0.000000000E+00  0.00000E+00  9.000E+00
      12     1     6     6     0     0 -1.435227606E+02  3.616049509E+01 -2.267434299E+01  1.497347322E+02  2.132480600E-06  0.00000E+00  9.000E+00
      13     1     5     5     0     0 -1.195420102E+01 -1.650980112E+00  5.750536944E+00  1.336777215E+01  7.052516679E-07  0.00000E+00  9.000E+00
     -14     1     5     5     0     0  1.076074886E+02 -9.717081610E+01  7.431551029E+01  1.629243204E+02  2.132480600E-06  0.00000E+00  9.000E+00
       5     1     4     4   514     0 -2.048836271E+02  3.694074470E+01 -2.226871168E+02  3.048836397E+02  4.750000000E+00  0.00000E+00  9.000E+00
      -5     1     3     3     0   511  1.984083809E+02 -2.941143658E+01  3.777993239E+01  2.041587716E+02  4.750000000E+00  0.00000E+00  9.000E+00
      21     1     1     2   501   512  6.668930571E+01  4.639197837E+01  9.533556296E+02  9.568106582E+02  1.525878906E-05  0.00000E+00  9.000E+00
      21     1     3     3   511   502  1.857775282E+00 -4.142092736E-02  1.353099091E+00  2.298678282E+00  6.322027277E-08  0.00000E+00  9.000E+00
      21     1     4     4   507   514 -5.899508264E+00  1.006815445E+00 -7.895073035E+00  9.907070876E+00  2.795705652E-07  0.00000E+00  9.000E+00
#rwgt            1          17  -50.708036884876940                1     1726971           0
<weights>
-.13276E+02
</weights>
</event>
<event>
     14  10001  1.35417E+01  4.60181E+01 -1.00000E+00  3.77144E-01
      21    -1     0     0   511   501  0.000000000E+00  0.000000000E+00  6.890857215E+02  6.890857215E+02  0.000000000E+00  0.00000E+00  9.000E+00
      21    -1     0     0   501   502  0.000000000E+00  0.000000000E+00 -2.060624425E+02  2.060624425E+02  0.000000000E+00  0.00000E+00  9.000E+00
      -6     2     1     2     0   502 -1.726605657E+01 -1.092980731E+02  1.315498144E+01  2.057617742E+02  1.729759194E+02  0.00000E+00  9.000E+00
       6     2     1     2   507     0  1.146949389E+01  1.549496511E+02  1.511005423E+01  2.323057332E+02  1.720369039E+02  0.00000E+00  9.000E+00
     -24     2     3     3     0     0  4.235923881E+01 -1.103913065E+02 -4.147706982E+00  1.426542292E+02  7.970244652E+01  0.00000E+00  9.000E+00
      24     2     4     4     0     0 -2.461205280E+01  2.424250211E+01 -2.973868532E+01  8.940643741E+01  7.691339022E+01  0.00000E+00  9.000E+00
     -11     1     6     6     0     0  2.453325705E+01  2.350170034E+01 -4.865624045E+00  3.432032805E+01  6.165552397E-07  0.00000E+00  9.000E+00
      12     1     6     6     0     0 -4.914530985E+01  7.408017680E-01 -2.487306127E+01  5.508610936E+01  8.920806376E-07  0.00000E+00  9.000E+00
      13     1     5     5     0     0 -1.724616710E+00 -5.721542662E+01  3.106064977E+01  6.512559643E+01  5.840038640E-07  0.00000E+00  9.000E+00
     -14     1     5     5     0     0  4.408385552E+01 -5.317587987E+01 -3.520835675E+01  7.752863280E+01  2.236564522E-06  0.00000E+00  9.000E+00
       5     1     4     4   507     0  3.608154669E+01  1.307071490E+02  4.484873954E+01  1.428992958E+02  4.750000000E+00  0.00000E+00  9.000E+00
      -5     1     3     3     0   512 -5.731238095E+01  2.585845330E+00  1.790987861E+01  6.028865447E+01  4.750000000E+00  0.00000E+00  9.000E+00
      21     1     1     2   511   507  5.796562678E+00 -4.565157793E+01  4.547582434E+02  4.570806566E+02  5.394796609E-06  0.00000E+00  9.000E+00
      21     1     3     3   512   502 -2.312914439E+00 -1.492611967E+00 -6.071901949E-01  2.818890494E+00  7.261927683E-08  0.00000E+00  9.000E+00
#rwgt            1          17   18.948841665955420                1     1766640           0
<weights>
0.16745E+02
</weights>
</event>
<event>
     15  10001  1.35417E+01  9.15081E+00 -1.00000E+00  2.85434E-01
      21    -1     0     0   502   512  0.000000000E+00  0.000000000E+00  1.710334667E+02  1.710334667E+02  0.000000000E+00  0.00000E+00  9.000E+00
      21    -1     0     0   507   502  0.000000000E+00  0.000000000E+00 -1.080743378E+03  1.080743378E+03  0.000000000E+00  0.00000E+00  9.000E+00
      -6     2     1     2     0   501 -7.073600241E+01  1.252447254E+02 -2.315660876E+02  3.227268156E+02  1.727423552E+02  0.00000E+00  9.000E+00
       6     2     1     2   507     0  7.636250570E+01 -1.180280881E+02 -7.880898686E+02  8.187238295E+02  1.716426698E+02  0.00000E+00  9.000E+00
     -24     2     3     3     0     0 -3.950990846E+01  2.913704951E-01 -1.380196385E+02  1.633847472E+02  7.800023878E+01  0.00000E+00  9.000E+00
      24     2     4     4     0     0  6.783360401E+01 -6.029745650E+00 -4.360054043E+02  4.488753960E+02  8.216235706E+01  0.00000E+00  9.000E+00
     -11     1     6     6     0     0  2.053468617E+01 -3.376488700E+01 -8.656050336E+01  9.515493509E+01  1.907348633E-06  0.00000E+00  9.000E+00
      12     1     6     6     0     0  4.729891785E+01  2.773514135E+01 -3.494449009E+02  3.537204609E+02  5.394796609E-06  0.00000E+00  9.000E+00
      13     1     5     5     0     0 -4.597435572E+01  3.139144033E+01 -8.727864817E+01  1.035211396E+02  1.348699152E-06  0.00000E+00  9.000E+00
     -14     1     5     5     0     0  6.464447265E+00 -3.110006983E+01 -5.074099033E+01  5.986360766E+01  1.907348633E-06  0.00000E+00  9.000E+00
       5     1     4     4   513     0  7.547300945E+00 -1.112563998E+02 -3.435531761E+02  3.612288687E+02  4.750000000E+00  0.00000E+00  9.000E+00
      -5     1     3     3     0   511 -2.327119979E+01  9.131790593E+01 -7.081137689E+01  1.179717012E+02  4.750000000E+00  0.00000E+00  9.000E+00
      21     1     1     2   501   512 -5.626503288E+00 -7.216637282E+00  1.099460452E+02  1.103261993E+02  5.722045898E-06  0.00000E+00  9.000E+00
      21     1     3     3   511   501 -7.954894164E+00  3.363544900E+01 -2.273507221E+01  4.137036716E+01  1.118282261E-06  0.00000E+00  9.000E+00
      21     1     4     4   507   513  9.816007410E-01 -7.419427329E-01 -8.531288235E+00  8.619564837E+00  2.064765462E-07  0.00000E+00  9.000E+00
#rwgt            1          17   22.505250591876234                1     1802803           0
<weights>
0.15534E+02
</weights>
</event>
<event>
     14  10001 -1.35417E+01  4.51507E+01 -1.00000E+00  7.50653E-01
       2    -1     0     0   511     0  0.000000000E+00  0.000000000E+00  1.627540893E+03  1.627540893E+03  0.000000000E+00  0.00000E+00  9.000E+00
      -2    -1     0     0     0   502  0.000000000E+00  0.000000000E+00 -1.828875076E+02  1.828875076E+02  0.000000000E+00  0.00000E+00  9.000E+00
      -6     2     1     2     0   502 -1.167391443E+02 -3.048079045E+02  1.679725604E+02  4.057415263E+02  1.728453606E+02  0.00000E+00  9.000E+00
       6     2     1     2   507     0  7.806846197E+01  2.815020056E+02  3.885123367E+02  5.153714914E+02  1.712538306E+02  0.00000E+00  9.000E+00
     -24     2     3     3     0     0 -1.442343312E+02 -2.097446925E+02  9.838775759E+01  2.846729224E+02  8.100705858E+01  0.00000E+00  9.000E+00
      24     2     4     4     0     0  7.253562918E+01  9.020040429E+01  1.992781818E+02  2.444644392E+02  8.156922115E+01  0.00000E+00  9.000E+00
     -11     1     6     6     0     0  7.855603557E+01  8.192782206E+01  1.224761635E+02  1.669839195E+02  2.697398305E-06  0.00000E+00  9.000E+00
      12     1     6     6     0     0 -6.020406387E+00  8.272582231E+00  7.680201831E+01  7.748051966E+01  1.651812370E-06  0.00000E+00  9.000E+00
      13     1     5     5     0     0 -7.147067385E+01 -1.369704681E+02  9.568487098E+01  1.817266103E+02  3.015782986E-06  0.00000E+00  9.000E+00
     -14     1     5     5     0     0 -7.276365737E+01 -7.277422441E+01  2.702886609E+00  1.029463121E+02  2.552930325E-06  0.00000E+00  9.000E+00
       5     1     4     4   512     0  6.232503404E+00  1.794648100E+02  1.649388354E+02  2.438725980E+02  4.750000000E+00  0.00000E+00  9.000E+00
      -5     1     3     3     0   502  2.749518698E+01 -9.506321196E+01  6.958480281E+01  1.210686039E+02  4.750000000E+00  0.00000E+00  9.000E+00
      21     1     1     2   511   507  3.867068228E+01  2.330589886E+01  8.881684881E+02  8.893153827E+02  1.078959322E-05  0.00000E+00  9.000E+00
      21     1     4     4   507   512 -6.996706111E-01  1.183679131E+01  2.429531946E+01  2.703445422E+01  0.000000000E+00  0.00000E+00  9.000E+00
#rwgt            1           8 -0.70123910023455549                1     1832884           0
<weights>
-.13593E+02
</weights>
</event>
<event>
     15  10001  1.35417E+01  5.71449E+01 -1.00000E+00  3.45581E-01
      21    -1     0     0   502   512  0.000000000E+00  0.000000000E+00  1.111844003E+03  1.111844003E+03  0.000000000E+00  0.00000E+00  9.000E+00
      21    -1     0     0   507   502  0.000000000E+00  0.000000000E+00 -8.975435392E+01  8.975435392E+01  0.000000000E+00  0.00000E+00  9.000E+00
      -6     2     1     2     0   501  5.509428452E+01  1.090261998E+02  8.929015160E+02  9.177853029E+02  1.735933537E+02  0.00000E+00  9.000E+00
       6     2     1     2   507     0 -1.461705371E+01 -6.868849676E+01  1.285398796E+02  2.266645043E+02  1.729812968E+02  0.00000E+00  9.000E+00
     -24     2     3     3     0     0 -2.318265602E+01  7.091316340E+00  3.729587243E+02  3.821326846E+02  7.962070258E+01  0.00000E+00  9.000E+00
      24     2     4     4     0     0  3.040264905E+01 -8.313520032E+00  1.133228199E+01  8.690988818E+01  8.019646104E+01  0.00000E+00  9.000E+00
     -11     1     6     6     0     0  3.595313787E+00  2.781438056E+00  4.341623312E+01  4.365354484E+01  1.066240300E-06  0.00000E+00  9.000E+00
      12     1     6     6     0     0  2.680733526E+01 -1.109495809E+01 -3.208395113E+01  4.325634334E+01  2.821006671E-06  0.00000E+00  9.000E+00
      13     1     5     5     0     0  2.260407782E+01  5.390853573E+00  4.185002705E+01  4.786888761E+01  4.768371582E-07  0.00000E+00  9.000E+00
     -14     1     5     5     0     0 -4.578673384E+01  1.700462767E+00  3.311086973E+02  3.342637970E+02  5.394796609E-06  0.00000E+00  9.000E+00
       5     1     4     4   514     0 -4.329376793E+01 -6.015159352E+01  1.155110605E+02  1.373241863E+02  4.750000000E+00  0.00000E+00  9.000E+00
      -5     1     3     3     0   511  6.931666056E+01  9.331853829E+01  4.688976321E+02  4.831156186E+02  4.750000000E+00  0.00000E+00  9.000E+00
      21     1     1     2   501   512 -4.047723082E+01 -4.033770303E+01  6.482534520E-01  5.714854970E+01  1.013169388E-06  0.00000E+00  9.000E+00
      21     1     3     3   511   501  8.960279985E+00  8.616345156E+00  5.104515963E+01  5.253699976E+01  9.536743164E-07  0.00000E+00  9.000E+00
      21     1     4     4   507   514 -1.725934823E+00 -2.233832059E-01  1.696537062E+00  2.430429812E+00  5.575503985E-08  0.00000E+00  9.000E+00
#rwgt            1          17   14.296951276007729                1     1846190           0
<weights>
0.22871E+02
</weights>
</event>
<event>
     13  10001  1.35417E+01  7.24604E+01 -1.00000E+00  7.49995E-01
       1    -1     0     0   507     0  0.000000000E+00  0.000000000E+00  1.387968677E+02  1.387968677E+02  0.000000000E+00  0.00000E+00  9.000E+00
      21    -1     0     0   511   502  0.000000000E+00  0.000000000E+00 -3.614964054E+02  3.614964054E+02  0.000000000E+00  0.00000E+00  9.000E+00
      -6     2     1     2     0   502 -4.087954968E+01 -6.698374136E+01 -4.487713487E+01  1.957906244E+02  1.736722551E+02  0.00000E+00  9.000E+00
       6     2     1     2   507     0 -8.672483359E+00  1.411496982E+01 -1.096713138E+02  2.050286224E+02  1.724369293E+02  0.00000E+00  9.000E+00
     -24     2     3     3     0     0 -8.397691128E+01 -8.620555399E+01 -3.060168619E+01  1.462607184E+02  7.728010982E+01  0.00000E+00  9.000E+00
      24     2     4     4     0     0 -5.603907542E+01  5.001533887E+01 -9.178534675E+01  1.427799207E+02  7.949618728E+01  0.00000E+00  9.000E+00
     -11     1     6     6     0     0 -5.815941002E+01  5.246922476E+01 -3.481655488E+01  8.571889532E+01  9.536743164E-07  0.00000E+00  9.000E+00
      12     1     6     6     0     0  2.120334603E+00 -2.453885890E+00 -5.696879187E+01  5.706102542E+01  6.743495762E-07  0.00000E+00  9.000E+00
      13     1     5     5     0     0 -5.866761805E+01 -9.784933175E+00  1.742370207E+00  5.950353081E+01  5.623090942E-07  0.00000E+00  9.000E+00
     -14     1     5     5     0     0 -2.530929323E+01 -7.642062081E+01 -3.234405639E+01  8.675718756E+01  6.743495762E-07  0.00000E+00  9.000E+00
       5     1     4     4   507     0  4.736659206E+01 -3.590036906E+01 -1.788596709E+01  6.224870168E+01  4.750000000E+00  0.00000E+00  9.000E+00
      -5     1     3     3     0   502  4.309736160E+01  1.922181263E+01 -1.427544869E+01  4.952990604E+01  4.750000000E+00  0.00000E+00  9.000E+00
       1     1     1     2   511     0  4.955203304E+01  5.286877154E+01 -6.815108890E+01  9.947402626E+01  1.348699152E-06  0.00000E+00  9.000E+00
#rwgt            1           4  0.26776476973683339                1     1878984           0
<weights>
0.13613E+02
</weights>
</event>
<event>
     15  10001  1.35417E+01  1.69189E+01 -1.00000E+00  2.65454E-01
      21    -1     0     0   502   513  0.000000000E+00  0.000000000E+00  7.626612033E+01  7.626612033E+01  0.000000000E+00  0.00000E+00  9.000E+00
      21    -1     0     0   507   502  0.000000000E+00  0.000000000E+00 -6.892810082E+02  6.892810082E+02  0.000000000E+00  0.00000E+00  9.000E+00
      -6     2     1     2     0   501  9.022412833E+01 -4.268749973E+00 -1.932858294E+02  2.754898663E+02  1.742889526E+02  0.00000E+00  9.000E+00
       6     2     1     2   507     0 -1.031887623E+02 -6.601709015E+00 -2.549554526E+02  3.244173220E+02  1.719093156E+02  0.00000E+00  9.000E+00
     -24     2     3     3     0     0  1.110185857E+02  1.708840578E+01 -8.863878292E+01  1.649321061E+02  8.202820123E+01  0.00000E+00  9.000E+00
      24     2     4     4     0     0 -1.284209377E+02 -3.458745822E+01 -2.266070091E+02  2.742442134E+02  7.855521967E+01  0.00000E+00  9.000E+00
     -11     1     6     6     0     0 -1.121648967E+01 -2.853695032E+01 -1.992930171E+01  3.656971753E+01  8.596304120E-07  0.00000E+00  9.000E+00
      12     1     6     6     0     0 -1.172044480E+02 -6.050507908E+00 -2.066777073E+02  2.376744959E+02  7.136645101E-06  0.00000E+00  9.000E+00
      13     1     5     5     0     0  2.208056028E+00  5.772282527E+00  1.376231180E+01  1.508628461E+01  7.907449699E-07  0.00000E+00  9.000E+00
     -14     1     5     5     0     0  1.088105297E+02  1.131612325E+01 -1.024010947E+02  1.498458215E+02  1.907348633E-06  0.00000E+00  9.000E+00
       5     1     4     4   512     0  9.636572145E+00  1.020907037E+01 -2.311362942E+00  1.499978464E+01  4.750000000E+00  0.00000E+00  9.000E+00
      -5     1     3     3     0   511 -2.413447770E+01 -2.030781924E+01 -9.775571575E+01  1.028281236E+02  4.750000000E+00  0.00000E+00  9.000E+00
      21     1     4     4   507   512  1.559560327E+01  1.777667883E+01 -2.603708064E+01  3.517332398E+01  1.066240300E-06  0.00000E+00  9.000E+00
      21     1     1     2   501   513  1.296463392E+01  1.087045899E+01 -1.647736058E+02  1.656399402E+02  1.907348633E-06  0.00000E+00  9.000E+00
      21     1     3     3   511   501  3.340020284E+00 -1.049336507E+00 -6.891330704E+00  7.729636568E+00  8.429369702E-08  0.00000E+00  9.000E+00
#rwgt            1          17   25.342295770025277                1     1881454           0
<weights>
0.13105E+02
</weights>
</event>
<event>
     13  10001  1.35417E+01  9.02346E+01 -1.00000E+00  1.25869E-01
      21    -1     0     0   507   501  0.000000000E+00  0.000000000E+00  1.204078636E+03  1.204078636E+03  0.000000000E+00  0.00000E+00  9.000E+00
       2    -1     0     0   501     0  0.000000000E+00  0.000000000E+00 -9.846676023E+02  9.846676023E+02  0.000000000E+00  0.00000E+00  9.000E+00
      -6     2     1     2     0   502 -1.434726774E+02  1.397861394E+02 -5.110627489E+01  2.678867245E+02  1.703727441E+02  0.00000E+00  9.000E+00
       6     2     1     2   507     0  5.390900923E+01 -1.507697418E+02  1.080679100E+03  1.105688109E+03  1.704147300E+02  0.00000E+00  9.000E+00
     -24     2     3     3     0     0 -3.607418964E+01  1.278361017E+02 -2.368446490E+01  1.562992847E+02  7.889928046E+01  0.00000E+00  9.000E+00
      24     2     4     4     0     0  5.554240208E+01 -3.153995198E+01  6.401560419E+02  6.492874755E+02  8.771967205E+01  0.00000E+00  9.000E+00
     -11     1     6     6     0     0 -1.845171536E+01  9.963575960E+00  7.817522213E+01  8.093889054E+01  0.000000000E+00  0.00000E+00  9.000E+00
      12     1     6     6     0     0  7.399411745E+01 -4.150352794E+01  5.619808198E+02  5.683485850E+02  1.078959322E-05  0.00000E+00  9.000E+00
      13     1     5     5     0     0  5.721711837E+00  4.437699504E+00  1.808668510E+01  1.948228275E+01  3.371747881E-07  0.00000E+00  9.000E+00
     -14     1     5     5     0     0 -4.179590148E+01  1.233984022E+02 -4.177115000E+01  1.368170019E+02  3.438521648E-06  0.00000E+00  9.000E+00
       5     1     4     4   507     0 -1.633392853E+00 -1.192297898E+02  4.405230582E+02  4.564006333E+02  4.750000000E+00  0.00000E+00  9.000E+00
      -5     1     3     3     0   502 -1.073984877E+02  1.195003772E+01 -2.742180999E+01  1.115874398E+02  4.750000000E+00  0.00000E+00  9.000E+00
       2     1     1     2   502     0  8.956366814E+01  1.098360237E+01 -8.101617918E+02  8.151714047E+02  0.000000000E+00  0.00000E+00  9.000E+00
#rwgt            2          94   9.0853385483092293                1     1911972           0
<weights>
0.13542E+02
</weights>
</event>
<event>
     14  10001  1.35417E+01  6.96823E+01 -1.00000E+00  7.52175E-01
       2    -1     0     0   507     0  0.000000000E+00  0.000000000E+00  7.556947124E+02  7.556947124E+02  0.000000000E+00  0.00000E+00  9.000E+00
      21    -1     0     0   501   502  0.000000000E+00  0.000000000E+00 -3.520421802E+02  3.520421802E+02  0.000000000E+00  0.00000E+00  9.000E+00
      -6     2     1     2     0   502  3.969620577E+01  1.496097420E+01 -2.846428250E+02  3.355646489E+02  1.725760013E+02  0.00000E+00  9.000E+00
       6     2     1     2   507     0 -1.040304932E+02 -4.173252032E+01  2.288486038E+02  3.074713340E+02  1.720551975E+02  0.00000E+00  9.000E+00
     -24     2     3     3     0     0  8.363759006E+01 -2.480172180E+00 -1.381599810E+02  1.815684641E+02  8.293086918E+01  0.00000E+00  9.000E+00
      24     2     4     4     0     0 -5.282860244E+01 -8.958725638E+01  1.300514454E+02  1.859643719E+02  8.278062232E+01  0.00000E+00  9.000E+00
     -11     1     6     6     0     0 -3.360778129E+01  2.104943432E+00  1.313845408E+01  3.614599183E+01  8.760057960E-07  0.00000E+00  9.000E+00
      12     1     6     6     0     0 -1.922082115E+01 -9.169219981E+01  1.169129913E+02  1.498183801E+02  1.348699152E-06  0.00000E+00  9.000E+00
      13     1     5     5     0     0 -1.541788099E+01  1.083526043E+00 -6.496620285E+00  1.676577341E+01  4.986882368E-07  0.00000E+00  9.000E+00
     -14     1     5     5     0     0  9.905547104E+01 -3.563698223E+00 -1.316633607E+02  1.648026907E+02  3.814697266E-06  0.00000E+00  9.000E+00
       5     1     4     4   511     0 -4.907338529E+01  4.749017514E+01  9.684366525E+01  1.185949909E+02  4.750000000E+00  0.00000E+00  9.000E+00
      -5     1     3     3     0   502 -4.394138428E+01  1.744114638E+01 -1.464828440E+02  1.539961848E+02  4.750000000E+00  0.00000E+00  9.000E+00
       2     1     1     2   501     0  6.433428747E+01  2.677154612E+01  4.594467535E+02  4.647009097E+02  5.394796609E-06  0.00000E+00  9.000E+00
      21     1     4     4   507   511 -2.128505519E+00  3.645609180E-01  1.953493109E+00  2.911971109E+00  2.107342426E-08  0.00000E+00  9.000E+00
#rwgt            1          17   23.440941550418046                1     1913273           0
<weights>
0.12043E+02
</weights>
</event>
<event>
     14  10001 -1.35417E+01  1.47133E+01 -1.00000E+00  7.52538E-01
      21    -1     0     0   511   501  0.000000000E+00  0.000000000E+00  2.013759391E+02  2.013759391E+02  0.000000000E+00  0.00000E+00  9.000E+00
      21    -1     0     0   507   502  0.000000000E+00  0.000000000E+00 -7.367316035E+02  7.367316035E+02  0.000000000E+00  0.00000E+00  9.000E+00
      -6     2     1     2     0   501  4.320910174E+01  1.649094389E+02  8.356416230E+01  2.566018632E+02  1.726250197E+02  0.00000E+00  9.000E+00
       6     2     1     2   507     0 -2.875227397E+01 -1.621739731E+02 -4.303567724E+02  4.923694638E+02  1.734752044E+02  0.00000E+00  9.000E+00
     -24     2     3     3     0     0  1.863202625E+00  1.441112221E+02  1.139802266E+02  2.010163555E+02  8.151421492E+01  0.00000E+00  9.000E+00
      24     2     4     4     0     0 -7.227098704E+01 -1.403762514E+02 -3.306078264E+02  3.770882782E+02  8.924935375E+01  0.00000E+00  9.000E+00
     -11     1     6     6     0     0 -2.052679378E+01 -6.222230667E+01 -2.318561779E+02  2.409361989E+02  3.814697266E-06  0.00000E+00  9.000E+00
      12     1     6     6     0     0 -5.174419326E+01 -7.815394471E+01 -9.875164849E+01  1.361520793E+02  2.336015456E-06  0.00000E+00  9.000E+00
      13     1     5     5     0     0 -2.442564446E+01  1.735636419E+01  4.573477018E+01  5.467654605E+01  2.780414531E-06  0.00000E+00  9.000E+00
     -14     1     5     5     0     0  2.628884709E+01  1.267548579E+02  6.824545647E+01  1.463398094E+02  4.768371582E-06  0.00000E+00  9.000E+00
       5     1     4     4   512     0  4.816508609E+01 -1.922558655E+01 -8.595713890E+01  1.005021936E+02  4.750000000E+00  0.00000E+00  9.000E+00
      -5     1     3     3     0   501  4.134589911E+01  2.079821683E+01 -3.041606435E+01  5.558550771E+01  4.750000000E+00  0.00000E+00  9.000E+00
      21     1     1     2   511   502 -1.445682776E+01 -2.735465856E+00 -1.885630542E+02  1.891362156E+02  0.000000000E+00  0.00000E+00  9.000E+00
      21     1     4     4   507   512 -4.646373024E+00 -2.572135161E+00 -1.379180712E+01  1.477899202E+01  0.000000000E+00  0.00000E+00  9.000E+00
#rwgt            1          17  -23.210815240086514                1     1956603           0
<weights>
-.12111E+02
</weights>
</event>
<event>
     15  10001 -1.35417E+01  1.78056E+01 -1.00000E+00  1.74121E-01
      21    -1     0     0   512   501  0.000000000E+00  0.000000000E+00  3.834902363E+02  3.834902363E+02  0.000000000E+00  0.00000E+00  9.000E+00
      21    -1     0     0   501   502  0.000000000E+00  0.000000000E+00 -4.629639554E+02  4.629639554E+02  0.000000000E+00  0.00000E+00  9.000E+00
      -6     2     1     2     0   502  3.500324916E+01  5.296066251E+00 -3.925707865E+02  4.299234675E+02  1.716656335E+02  0.00000E+00  9.000E+00
       6     2     1     2   507     0 -4.420418343E+01  9.948074804E+00  9.872834539E+01  2.014237974E+02  1.696210068E+02  0.00000E+00  9.000E+00
     -24     2     3     3     0     0 -1.514679258E+01 -3.820419402E+01 -1.131189221E+02  1.422690444E+02  7.586570170E+01  0.00000E+00  9.000E+00
      24     2     4     4     0     0 -7.883483779E+01 -1.631782318E+01  1.144869621E+02  1.536366482E+02  6.336996267E+01  0.00000E+00  9.000E+00
     -11     1     6     6     0     0 -5.766943272E+01  1.316850455E+01  9.635369552E+01  1.130628481E+02  2.697398305E-06  0.00000E+00  9.000E+00
      12     1     6     6     0     0 -2.116540507E+01 -2.948632773E+01  1.813326658E+01  4.057380007E+01  1.668930054E-06  0.00000E+00  9.000E+00
      13     1     5     5     0     0  2.740290936E+01  5.491464792E-02 -2.436529581E+01  3.666865278E+01  1.581489940E-06  0.00000E+00  9.000E+00
     -14     1     5     5     0     0 -4.254970194E+01 -3.825910867E+01 -8.875362634E+01  1.056003917E+02  1.651812370E-06  0.00000E+00  9.000E+00
       5     1     4     4   513     0  3.526892348E+01  2.509851846E+01 -1.607455554E+01  4.641967717E+01  4.750000000E+00  0.00000E+00  9.000E+00
      -5     1     3     3     0   511  1.968175020E+01  2.514984491E+01 -1.185255651E+02  1.228444467E+02  4.750000000E+00  0.00000E+00  9.000E+00
      21     1     1     2   512   507  9.200934269E+00 -1.524414106E+01  2.143687220E+02  2.151069269E+02  0.000000000E+00  0.00000E+00  9.000E+00
      21     1     3     3   511   502  3.046829154E+01  1.835041536E+01 -1.609262992E+02  1.648099763E+02  1.907348633E-06  0.00000E+00  9.000E+00
      21     1     4     4   507   513 -6.382691219E-01  1.167379527E+00  3.159388230E-01  1.367472037E+00  1.343172519E-08  0.00000E+00  9.000E+00
#rwgt            1          17  -20.144764718043970                1     1992877           0
<weights>
-.14035E+02
</weights>
</event>
<event>
     15  10001  1.35417E+01  2.78101E+01 -1.00000E+00  6.67828E-01
      21    -1     0     0   511   501  0.000000000E+00  0.000000000E+00  1.625359010E+02  1.625359010E+02  0.000000000E+00  0.00000E+00  9.000E+00
      21    -1     0     0   501   502  0.000000000E+00  0.000000000E+00 -3.585833742E+02  3.585833742E+02  0.000000000E+00  0.00000E+00  9.000E+00
      -6     2     1     2     0   502 -1.093042228E+02  7.177156032E+01 -1.854091910E+02  2.843504825E+02  1.714061224E+02  0.00000E+00  9.000E+00
       6     2     1     2   507     0  8.715576070E+01 -5.495353413E+01 -2.916418648E+01  2.033530851E+02  1.728754173E+02  0.00000E+00  9.000E+00
     -24     2     3     3     0     0 -1.450534223E+02  5.443011418E+01 -1.404201946E+02  2.236239439E+02  7.928874179E+01  0.00000E+00  9.000E+00
      24     2     4     4     0     0 -8.371111139E+00 -7.446495426E+01 -2.760479518E+01  1.029805785E+02  6.502207257E+01  0.00000E+00  9.000E+00
     -11     1     6     6     0     0 -2.541484987E+01 -3.260882609E+00 -3.291841030E+00  2.583377957E+01  6.063875541E-07  0.00000E+00  9.000E+00
      12     1     6     6     0     0  1.704373873E+01 -7.120407165E+01 -2.431295414E+01  7.714679895E+01  1.846782373E-06  0.00000E+00  9.000E+00
      13     1     5     5     0     0 -3.642838379E+01 -3.182900416E+00 -7.707182450E+01  8.530664764E+01  9.536743164E-07  0.00000E+00  9.000E+00
     -14     1     5     5     0     0 -1.086250385E+02  5.761301460E+01 -6.334837007E+01  1.383172962E+02  3.693564745E-06  0.00000E+00  9.000E+00
       5     1     4     4   512     0  6.741172789E+01  9.116490880E+00 -1.072052686E+01  6.902857133E+01  4.750000000E+00  0.00000E+00  9.000E+00
      -5     1     3     3     0   514  3.584850500E+01  1.682553016E+01 -4.291619906E+01  5.858819350E+01  4.750000000E+00  0.00000E+00  9.000E+00
      21     1     1     2   511   507  2.214846212E+01 -1.681802618E+01  1.852590428E+01  3.341570751E+01  4.129530925E-07  0.00000E+00  9.000E+00
      21     1     4     4   507   512  2.811514394E+01  1.039492925E+01  9.161135561E+00  3.134393526E+01  5.717076687E-07  0.00000E+00  9.000E+00
      21     1     3     3   514   502 -9.930552545E-02  5.159159816E-01 -2.072797421E+00  2.138345163E+00  2.980232239E-08  0.00000E+00  9.000E+00
#rwgt            1          17   72.285134623242158                1     2015333           0
<weights>
0.15875E+02
</weights>
</event>
<event>
     14  10001  1.35417E+01  8.00874E+01 -1.00000E+00  7.52666E-01
      21    -1     0     0   507   512  0.000000000E+00  0.000000000E+00  4.898926739E+02  4.898926739E+02  0.000000000E+00  0.00000E+00  9.000E+00
      21    -1     0     0   501   502  0.000000000E+00  0.000000000E+00 -2.936586863E+02  2.936586863E+02  0.000000000E+00  0.00000E+00  9.000E+00
      -6     2     1     2     0   502  1.912824795E+01  1.501053673E+02  3.118040738E+02  3.861517309E+02  1.702758575E+02  0.00000E+00  9.000E+00
       6     2     1     2   507     0 -5.935989191E+01 -2.193542560E+02 -4.255456531E+01  2.890240784E+02  1.734478033E+02  0.00000E+00  9.000E+00
     -24     2     3     3     0     0 -1.208504008E+01  1.507914883E+02  1.784888051E+02  2.491471197E+02  8.562658792E+01  0.00000E+00  9.000E+00
      24     2     4     4     0     0 -7.918735232E+01 -6.788955135E+01 -2.998976567E+01  1.352428910E+02  8.069464406E+01  0.00000E+00  9.000E+00
     -11     1     6     6     0     0 -1.705065479E+01 -3.421732068E+01  2.501475375E+01  4.568684458E+01  9.536743164E-07  0.00000E+00  9.000E+00
      12     1     6     6     0     0 -6.213669753E+01 -3.367223067E+01 -5.500451942E+01  8.955604645E+01  2.023048729E-06  0.00000E+00  9.000E+00
      13     1     5     5     0     0  1.016558917E+01  1.038575245E+02  1.654233682E+02  1.955878712E+02  2.697398305E-06  0.00000E+00  9.000E+00
     -14     1     5     5     0     0 -2.225062926E+01  4.693396383E+01  1.306543692E+01  5.355924855E+01  1.359195024E-06  0.00000E+00  9.000E+00
       5     1     4     4   511     0  2.016243154E+01 -1.446644528E+02 -9.917377855E+00  1.464760882E+02  4.750000000E+00  0.00000E+00  9.000E+00
      -5     1     3     3     0   502  3.121328804E+01 -6.861210373E-01  1.333152687E+02  1.370046112E+02  4.750000000E+00  0.00000E+00  9.000E+00
      21     1     1     2   501   512  4.023164396E+01  6.924888871E+01 -7.301552089E+01  1.083755510E+02  2.132480600E-06  0.00000E+00  9.000E+00
      21     1     4     4   507   511 -3.349711322E-01 -6.800251867E+00 -2.647421785E+00  7.305099125E+00  1.228781231E-07  0.00000E+00  9.000E+00
#rwgt            1          17   30.361928835567337                1     2049219           0
<weights>
0.11866E+02
</weights>
</event>
<event>
     15  10001 -1.35417E+01  1.42513E+02 -1.00000E+00  1.79223E-01
      21    -1     0     0   511   501  0.000000000E+00  0.000000000E+00  1.731207375E+02  1.731207375E+02  0.000000000E+00  0.00000E+00  9.000E+00
      21    -1     0     0   507   502  0.000000000E+00  0.000000000E+00 -6.320010471E+02  6.320010471E+02  0.000000000E+00  0.00000E+00  9.000E+00
      -6     2     1     2     0   501  6.940067612E+01  9.608050494E+01  8.393774308E+00  2.086197482E+02  1.714754403E+02  0.00000E+00  9.000E+00
       6     2     1     2   507     0  6.343917188E+01 -4.447062655E+01 -1.286028639E+02  2.290674163E+02  1.730058365E+02  0.00000E+00  9.000E+00
     -24     2     3     3     0     0  2.305244847E+00  7.930579999E+01  5.152838491E+01  1.244713022E+02  8.089008937E+01  0.00000E+00  9.000E+00
      24     2     4     4     0     0  6.327410602E+00  1.522996594E+01 -1.181237861E+02  1.452539081E+02  8.290645923E+01  0.00000E+00  9.000E+00
     -11     1     6     6     0     0  1.834443919E+01  2.251696400E+01 -2.913246318E+00  2.918936658E+01  6.093099207E-07  0.00000E+00  9.000E+00
      12     1     6     6     0     0 -1.201702859E+01 -7.286998065E+00 -1.152105398E+02  1.160645415E+02  3.015782986E-06  0.00000E+00  9.000E+00
      13     1     5     5     0     0 -3.028051257E+01  3.190070259E+00  1.564686132E+01  3.423317483E+01  6.078504936E-07  0.00000E+00  9.000E+00
     -14     1     5     5     0     0  3.258575742E+01  7.611572973E+01  3.588152359E+01  9.023812739E+01  1.966049969E-06  0.00000E+00  9.000E+00
       5     1     4     4   513     0  4.898007890E+01 -5.214403068E+01 -6.384657676E+00  7.198176448E+01  4.750000000E+00  0.00000E+00  9.000E+00
      -5     1     3     3     0   512  4.943598141E+01  4.933711085E+00 -2.333004497E+01  5.509184387E+01  4.750000000E+00  0.00000E+00  9.000E+00
      21     1     1     2   511   502 -1.328398480E+02 -5.160987839E+01 -3.386712200E+02  3.674346201E+02  3.814697266E-06  0.00000E+00  9.000E+00
      21     1     3     3   512   501  1.765944987E+01  1.184099386E+01 -1.980456563E+01  2.905660209E+01  4.129530925E-07  0.00000E+00  9.000E+00
      21     1     4     4   507   513  8.131682382E+00 -7.556561803E+00 -4.094420114E+00  1.183174377E+01  0.000000000E+00  0.00000E+00  9.000E+00
#rwgt            1          17  -5.3410431212138594                1     2091790           0
<weights>
-.15756E+02
</weights>
</event>
<event>
     15  10001  1.35417E+01  9.00837E+01 -1.00000E+00  2.67702E-01
      21    -1     0     0   502   501  0.000000000E+00  0.000000000E+00  9.649488480E+02  9.649488480E+02  0.000000000E+00  0.00000E+00  9.000E+00
       1    -1     0     0   507     0  0.000000000E+00  0.000000000E+00 -1.064279348E+02  1.064279348E+02  0.000000000E+00  0.00000E+00  9.000E+00
      -6     2     1     2     0   501 -5.279958054E+01  9.676114618E+01  5.929799701E+02  6.274139229E+02  1.728365429E+02  0.00000E+00  9.000E+00
       6     2     1     2   507     0  1.297652111E+02 -4.994907731E+01  2.744078618E+02  3.534437993E+02  1.740371349E+02  0.00000E+00  9.000E+00
     -24     2     3     3     0     0 -9.676523535E+01  9.323810324E+01  4.646329725E+02  4.902473906E+02  8.001156299E+01  0.00000E+00  9.000E+00
      24     2     4     4     0     0  1.158136936E+02 -8.972947798E+01  2.378689937E+02  2.905071196E+02  7.967771045E+01  0.00000E+00  9.000E+00
     -11     1     6     6     0     0  1.108558029E+02 -4.357200870E+01  1.862820757E+02  2.211075320E+02  4.672030912E-06  0.00000E+00  9.000E+00
      12     1     6     6     0     0  4.957890668E+00 -4.615746929E+01  5.158691794E+01  6.939958756E+01  1.507891493E-06  0.00000E+00  9.000E+00
      13     1     5     5     0     0 -6.364945307E+00  5.836492091E+01  1.997204681E+02  2.081711841E+02  2.697398305E-06  0.00000E+00  9.000E+00
     -14     1     5     5     0     0 -9.040029005E+01  3.487318232E+01  2.649125044E+02  2.820762065E+02  3.814697266E-06  0.00000E+00  9.000E+00
       5     1     4     4   511     0  1.282518224E+01  3.851127370E+01  1.857172364E+01  4.488958588E+01  4.750000000E+00  0.00000E+00  9.000E+00
      -5     1     3     3     0   512  4.513371978E+01  3.296844851E+00  1.136376989E+02  1.224091947E+02  4.750000000E+00  0.00000E+00  9.000E+00
       1     1     1     2   502     0 -7.696563055E+01 -4.681206887E+01 -8.866918718E+00  9.051906056E+01  4.051362388E-06  0.00000E+00  9.000E+00
      21     1     4     4   507   511  1.126335253E+00  1.269126976E+00  1.796714447E+01  1.804709380E+01  3.371747881E-07  0.00000E+00  9.000E+00
      21     1     3     3   512   501 -1.168064974E+00  2.261980896E-01  1.470929879E+01  1.475733757E+01  0.000000000E+00  0.00000E+00  9.000E+00
#rwgt            1          17   28.773308671351547                1     2108670           0
<weights>
0.13094E+02
</weights>
</event>
<event>
     15  10001  1.35417E+01  9.05674E+00 -1.00000E+00  1.33493E-01
      -1    -1     0     0     0   512  0.000000000E+00  0.000000000E+00  2.589889528E+02  2.589889528E+02  0.000000000E+00  0.00000E+00  9.000E+00
       1    -1     0     0   507     0  0.000000000E+00  0.000000000E+00 -2.451297426E+02  2.451297426E+02  0.000000000E+00  0.00000E+00  9.000E+00
      -6     2     1     2     0   501 -5.191327135E+01  8.752871193E+01  1.411221393E+02  2.454143705E+02  1.730794381E+02  0.00000E+00  9.000E+00
       6     2     1     2   507     0  6.090738652E+01 -8.646547867E+01 -1.374978260E+02  2.450376615E+02  1.730659258E+02  0.00000E+00  9.000E+00
     -24     2     3     3     0     0 -1.818554323E+01  2.988441355E+01  1.377399106E+02  1.635289432E+02  8.090513048E+01  0.00000E+00  9.000E+00
      24     2     4     4     0     0  9.130598925E+01 -3.903114867E+00 -8.080576511E+01  1.400303331E+02  6.875248742E+01  0.00000E+00  9.000E+00
     -11     1     6     6     0     0  8.807993395E+01 -1.831862228E+01 -4.354677039E+01  9.994982691E+01  1.784161275E-06  0.00000E+00  9.000E+00
      12     1     6     6     0     0  3.226055299E+00  1.441550741E+01 -3.725899472E+01  4.008050617E+01  1.507891493E-06  0.00000E+00  9.000E+00
      13     1     5     5     0     0  1.081577090E+01  1.248218094E+00 -7.143664760E+00  1.302193898E+01  3.371747881E-07  0.00000E+00  9.000E+00
     -14     1     5     5     0     0 -2.900131414E+01  2.863619546E+01  1.448835753E+02  1.505070042E+02  3.303624740E-06  0.00000E+00  9.000E+00
       5     1     4     4   513     0 -2.928667566E+01 -7.406777235E+01 -5.202060876E+01  9.524941211E+01  4.750000000E+00  0.00000E+00  9.000E+00
      -5     1     3     3     0   511 -2.123671211E+01 -8.727792050E-01 -1.633945112E+00  2.184014564E+01  4.750000000E+00  0.00000E+00  9.000E+00
      21     1     3     3   511   501 -1.249101601E+01  5.851707758E+01  5.016173836E+00  6.004528166E+01  7.177349674E-07  0.00000E+00  9.000E+00
      21     1     1     2   501   512 -8.994115178E+00 -1.063233254E+00  1.023489687E+01  1.366666333E+01  2.920019320E-07  0.00000E+00  9.000E+00
      21     1     4     4   507   513 -1.111927067E+00 -8.494591460E+00 -4.671452119E+00  9.757916313E+00  1.788139343E-07  0.00000E+00  9.000E+00
#rwgt            1           2  0.16799523926656154                1     2130238           0
<weights>
0.26886E+02
</weights>
</event>
<event>
     14  10001  1.35417E+01  3.33944E+01 -1.00000E+00  7.52045E-01
      21    -1     0     0   507   512  0.000000000E+00  0.000000000E+00  1.654790922E+02  1.654790922E+02  0.000000000E+00  0.00000E+00  9.000E+00
      21    -1     0     0   501   502  0.000000000E+00  0.000000000E+00 -5.112818490E+02  5.112818490E+02  0.000000000E+00  0.00000E+00  9.000E+00
      -6     2     1     2     0   502  1.507383682E+02  5.914357395E+01 -2.995102260E+02  3.822599274E+02  1.737707069E+02  0.00000E+00  9.000E+00
       6     2     1     2   507     0 -1.769486796E+02 -3.845049200E+01 -1.834903199E+01  2.509576655E+02  1.727824856E+02  0.00000E+00  9.000E+00
     -24     2     3     3     0     0  1.529292616E+02  3.238854871E+01 -1.504072671E+02  2.306852387E+02  7.846627448E+01  0.00000E+00  9.000E+00
      24     2     4     4     0     0 -1.785479961E+02 -3.001591799E+00  2.104260625E+01  1.970351203E+02  8.057078185E+01  0.00000E+00  9.000E+00
     -11     1     6     6     0     0 -2.785114465E+01  1.295086250E+01  3.292960835E+01  4.503076952E+01  1.168007728E-06  0.00000E+00  9.000E+00
      12     1     6     6     0     0 -1.506968514E+02 -1.595245430E+01 -1.188700210E+01  1.520043508E+02  3.076431251E-06  0.00000E+00  9.000E+00
      13     1     5     5     0     0  1.144030109E+01 -7.387280272E+00  7.014477719E+00  1.531846260E+01  7.102713160E-07  0.00000E+00  9.000E+00
     -14     1     5     5     0     0  1.414889605E+02  3.977582898E+01 -1.574217448E+02  2.153667761E+02  5.394796609E-06  0.00000E+00  9.000E+00
       5     1     4     4   511     0 -2.215763994E+00 -2.426095994E+01 -2.911899852E+01  3.826202245E+01  4.750000000E+00  0.00000E+00  9.000E+00
      -5     1     3     3     0   502 -2.190893328E+00  2.675502524E+01 -1.491029589E+02  1.515746887E+02  4.750000000E+00  0.00000E+00  9.000E+00
      21     1     1     2   501   512  2.621031139E+01 -2.069308194E+01 -2.794349884E+01  4.354334841E+01  5.840038640E-07  0.00000E+00  9.000E+00
      21     1     4     4   507   511  3.815080461E+00 -1.118794026E+01 -1.027263972E+01  1.566052276E+01  1.192092896E-07  0.00000E+00  9.000E+00
#rwgt            1          17   21.936553322534831                1     2130905           0
<weights>
0.12683E+02
</weights>
</event>
<event>
     13  10001  1.35417E+01  2.02593E+01 -1.00000E+00  1.65909E-01
      21    -1     0     0   511   501  0.000000000E+00  0.000000000E+00  1.693316276E+02  1.693316276E+02  0.000000000E+00  0.00000E+00  9.000E+00
      21    -1     0     0   507   502  0.000000000E+00  0.000000000E+00 -2.706579050E+02  2.706579050E+02  0.000000000E+00  0.00000E+00  9.000E+00
      -6     2     1     2     0   501 -4.560324989E+01  1.299568689E+01 -1.654580879E+01  1.794909940E+02  1.723215275E+02  0.00000E+00  9.000E+00
       6     2     1     2   507     0  5.392547000E+01 -3.146670905E+01 -1.203352781E+02  2.195768760E+02  1.727290225E+02  0.00000E+00  9.000E+00
     -24     2     3     3     0     0 -2.668581679E+01 -1.905911574E+00 -7.650111070E+01  1.147057515E+02  8.117403632E+01  0.00000E+00  9.000E+00
      24     2     4     4     0     0  5.501364284E+01 -8.332335376E+01 -7.544900511E+01  1.508190712E+02  8.416981451E+01  0.00000E+00  9.000E+00
     -11     1     6     6     0     0  4.772874326E+01 -8.407088860E+01 -9.154175655E+01  1.331384258E+02  3.015782986E-06  0.00000E+00  9.000E+00
      12     1     6     6     0     0  7.284899586E+00  7.475348391E-01  1.609275144E+01  1.768064533E+01  0.000000000E+00  0.00000E+00  9.000E+00
      13     1     5     5     0     0 -3.397992392E+01 -2.318774073E+01 -7.095510082E+00  4.174509328E+01  1.158846742E-06  0.00000E+00  9.000E+00
     -14     1     5     5     0     0  7.294107129E+00  2.128182915E+01 -6.940560062E+01  7.296065823E+01  0.000000000E+00  0.00000E+00  9.000E+00
       5     1     4     4   507     0 -1.088172842E+00  5.185664472E+01 -4.488627295E+01  6.875780480E+01  4.750000000E+00  0.00000E+00  9.000E+00
      -5     1     3     3     0   501 -1.891743310E+01  1.490159846E+01  5.995530191E+01  6.478524245E+01  4.750000000E+00  0.00000E+00  9.000E+00
      21     1     1     2   511   502 -8.322220111E+00  1.847102216E+01  3.555480941E+01  4.092166271E+01  0.000000000E+00  0.00000E+00  9.000E+00
#rwgt            2         113   16.990838957180031                1     2175412           0
<weights>
0.13542E+02
</weights>
</event>
<event>
     15  10001  1.35417E+01  3.13594E+02 -1.00000E+00  4.67030E-01
      21    -1     0     0   512   501  0.000000000E+00  0.000000000E+00  4.049090765E+02  4.049090765E+02  0.000000000E+00  0.00000E+00  9.000E+00
      21    -1     0     0   507   502  0.000000000E+00  0.000000000E+00 -7.016449581E+02  7.016449581E+02  0.000000000E+00  0.00000E+00  9.000E+00
      -6     2     1     2     0   501  2.730403713E+02 -2.512726316E+02 -3.049146649E+02  5.099793224E+02  1.715137795E+02  0.00000E+00  9.000E+00
       6     2     1     2   507     0 -7.456773047E+00  8.451915729E+01 -1.502373294E+02  2.452386429E+02  1.742746264E+02  0.00000E+00  9.000E+00
     -24     2     3     3     0     0  1.438996367E+02 -5.522842559E+01 -1.249650521E+02  2.141222691E+02  8.046612601E+01  0.00000E+00  9.000E+00
      24     2     4     4     0     0  3.265783927E+00 -3.825928233E+00 -1.932760174E+01  8.592050263E+01  8.356717963E+01  0.00000E+00  9.000E+00
     -11     1     6     6     0     0 -2.968477331E+01  1.985214926E+01  8.512940522E+00  3.671190206E+01  6.743495762E-07  0.00000E+00  9.000E+00
      12     1     6     6     0     0  3.295055724E+01 -2.367807749E+01 -2.784054227E+01  4.920860056E+01  3.371747881E-07  0.00000E+00  9.000E+00
      13     1     5     5     0     0  6.655748386E+01  2.551835804E+00 -1.592170922E+01  6.848292742E+01  1.846782373E-06  0.00000E+00  9.000E+00
     -14     1     5     5     0     0  7.734215285E+01 -5.778026139E+01 -1.090433429E+02  1.456393417E+02  4.862803949E-06  0.00000E+00  9.000E+00
       5     1     4     4   513     0 -1.242212188E+01  8.808355368E+01 -1.284505683E+02  1.563174096E+02  4.750000000E+00  0.00000E+00  9.000E+00
      -5     1     3     3     0   511  1.172527721E+02 -1.759889765E+02 -1.619305156E+02  2.663914165E+02  4.750000000E+00  0.00000E+00  9.000E+00
      21     1     1     2   512   502 -2.655835983E+02  1.667534743E+02  1.584161127E+02  3.513360694E+02  1.061966775E-05  0.00000E+00  9.000E+00
      21     1     4     4   507   513  1.699564907E+00  2.615318438E-01 -2.459159417E+00  3.000730714E+00  5.960464478E-08  0.00000E+00  9.000E+00
      21     1     3     3   511   501  1.188796255E+01 -2.005522954E+01 -1.801909720E+01  2.946563675E+01  5.331201500E-07  0.00000E+00  9.000E+00
#rwgt            1          17   10.161711960887459                1     2183434           0
<weights>
0.15422E+02
</weights>
</event>
<event>
     15  10001  1.35417E+01  6.29319E+01 -1.00000E+00  4.48370E-01
      21    -1     0     0   511   501  0.000000000E+00  0.000000000E+00  1.700944752E+02  1.700944752E+02  0.000000000E+00  0.00000E+00  9.000E+00
      21    -1     0     0   507   502  0.000000000E+00  0.000000000E+00 -4.912324475E+02  4.912324475E+02  0.000000000E+00  0.00000E+00  9.000E+00
      -6     2     1     2     0   501 -5.269195416E+01  1.066342067E+02 -9.743271115E+00  2.098688492E+02  1.726346039E+02  0.00000E+00  9.000E+00
       6     2     1     2   507     0  2.475386330E+01 -1.630247337E+02 -3.062875584E+02  3.883192474E+02  1.725976591E+02  0.00000E+00  9.000E+00
     -24     2     3     3     0     0 -1.469470227E+01  1.335447551E+02 -3.505316216E+00  1.613770974E+02  8.933165405E+01  0.00000E+00  9.000E+00
      24     2     4     4     0     0  1.545483397E+01 -1.018825669E+02 -7.241134722E+01  1.463391235E+02  7.451729012E+01  0.00000E+00  9.000E+00
     -11     1     6     6     0     0  1.430680655E+01 -2.109596961E+01  1.313101057E+01  2.867312481E+01  1.450243599E-06  0.00000E+00  9.000E+00
      12     1     6     6     0     0  1.148027411E+00 -8.078659734E+01 -8.554235780E+01  1.176659987E+02  2.132480600E-06  0.00000E+00  9.000E+00
      13     1     5     5     0     0 -1.495989830E+01  4.683255886E+01  4.090320029E+01  6.395435029E+01  2.821006671E-06  0.00000E+00  9.000E+00
     -14     1     5     5     0     0  2.651960323E-01  8.671219626E+01 -4.440851651E+01  9.742274707E+01  1.348699152E-06  0.00000E+00  9.000E+00
       5     1     4     4   513     0  8.865510418E+00 -5.439973058E+01 -2.103226354E+02  2.174766687E+02  4.750000000E+00  0.00000E+00  9.000E+00
      -5     1     3     3     0   512 -3.654814710E+01 -2.792410868E+01 -6.533817126E+00  4.669878123E+01  4.750000000E+00  0.00000E+00  9.000E+00
      21     1     1     2   511   502  2.793809086E+01  5.639052700E+01 -5.107142685E+00  6.313882611E+01  1.937838579E-06  0.00000E+00  9.000E+00
      21     1     3     3   512   501 -1.449104787E+00  1.013560249E+00  2.958622271E-01  1.792970585E+00  6.777571663E-08  0.00000E+00  9.000E+00
      21     1     4     4   507   513  4.335189166E-01 -6.742436166E+00 -2.355357582E+01  2.450345522E+01  3.371747881E-07  0.00000E+00  9.000E+00
#rwgt            1          17   26.565975499670934                1     2218309           0
<weights>
0.12529E+02
</weights>
</event>
<event>
     15  10001  1.35417E+01  6.78251E+01 -1.00000E+00  2.01730E-01
      21    -1     0     0   502   501  0.000000000E+00  0.000000000E+00  1.169163247E+03  1.169163247E+03  0.000000000E+00  0.00000E+00  9.000E+00
      21    -1     0     0   507   512  0.000000000E+00  0.000000000E+00 -8.432525252E+02  8.432525252E+02  0.000000000E+00  0.00000E+00  9.000E+00
      -6     2     1     2     0   501 -1.451951267E+02  9.830200906E+01 -4.198424572E+02  4.857418970E+02  1.700958315E+02  0.00000E+00  9.000E+00
       6     2     1     2   507     0  2.092907967E+02 -1.204828320E+02 -3.327281885E+02  4.460618708E+02  1.730444879E+02  0.00000E+00  9.000E+00
     -24     2     3     3     0     0 -9.326352806E+00  6.362607323E+01 -2.048082007E+02  2.268320975E+02  7.328808450E+01  0.00000E+00  9.000E+00
      24     2     4     4     0     0  2.092131929E+02 -8.400277733E+01 -3.292910234E+02  4.069113528E+02  7.948361020E+01  0.00000E+00  9.000E+00
     -11     1     6     6     0     0  1.159778859E+02 -8.539432305E+01 -1.751529885E+02  2.267633785E+02  6.325959759E-06  0.00000E+00  9.000E+00
      12     1     6     6     0     0  9.323530702E+01  1.391545721E+00 -1.541380349E+02  1.801479744E+02  0.000000000E+00  0.00000E+00  9.000E+00
      13     1     5     5     0     0 -1.375632825E+01  5.482808280E+01 -6.284359947E+01  8.452616888E+01  1.168007728E-06  0.00000E+00  9.000E+00
     -14     1     5     5     0     0  4.429975445E+00  8.797990428E+00 -1.419646012E+02  1.423059286E+02  3.303624740E-06  0.00000E+00  9.000E+00
       5     1     4     4   514     0 -1.832704621E+00 -3.536061781E+01 -8.366002272E-01  3.573505979E+01  4.750000000E+00  0.00000E+00  9.000E+00
      -5     1     3     3     0   511 -1.336211150E+02  2.735625894E+01 -2.016935347E+02  2.435278459E+02  4.750000000E+00  0.00000E+00  9.000E+00
      21     1     1     2   502   512 -6.409566997E+01  2.218082296E+01  1.078481368E+03  1.080612005E+03  2.157918644E-05  0.00000E+00  9.000E+00
      21     1     3     3   511   501 -2.247658853E+00  7.319676886E+00 -1.334072178E+01  1.538195364E+01  2.920019320E-07  0.00000E+00  9.000E+00
      21     1     4     4   507   514  1.910308351E+00 -1.119436870E+00 -2.600564902E+00  3.415458199E+00  4.214684851E-08  0.00000E+00  9.000E+00
#rwgt            1          17   20.336759920995561                1     2256657           0
<weights>
0.13107E+02
</weights>
</event>
<event>
     14  10001  1.35417E+01  1.04232E+02 -1.00000E+00  2.29264E-01
      21    -1     0     0   511   501  0.000000000E+00  0.000000000E+00  5.144678964E+02  5.144678964E+02  0.000000000E+00  0.00000E+00  9.000E+00
      21    -1     0     0   507   502  0.000000000E+00  0.000000000E+00 -2.407805045E+02  2.407805045E+02  0.000000000E+00  0.00000E+00  9.000E+00
      -6     2     1     2     0   501 -3.842143056E+01 -8.559468938E+01  1.329692616E+02  2.369983834E+02  1.722926348E+02  0.00000E+00  9.000E+00
       6     2     1     2   507     0  1.001493899E+02  1.695829290E+02 -8.495141805E+01  2.696718400E+02  1.634560728E+02  0.00000E+00  9.000E+00
     -24     2     3     3     0     0 -7.004169707E+01 -1.079893973E+02  8.639023800E+01  1.746910862E+02  8.053665697E+01  0.00000E+00  9.000E+00
      24     2     4     4     0     0  1.166993964E+02  1.841990535E+02 -8.437539205E+01  2.470791837E+02  7.988038446E+01  0.00000E+00  9.000E+00
     -11     1     6     6     0     0  2.743340559E+01  1.365465698E+01 -3.847792812E+01  4.918935202E+01  9.536743164E-07  0.00000E+00  9.000E+00
      12     1     6     6     0     0  8.926599077E+01  1.705443965E+02 -4.589746393E+01  1.978898317E+02  3.754619538E-06  0.00000E+00  9.000E+00
      13     1     5     5     0     0 -1.079820861E+01 -3.919877479E+01 -1.041985577E+01  4.197283226E+01  3.769728732E-07  0.00000E+00  9.000E+00
     -14     1     5     5     0     0 -5.924348846E+01 -6.879062251E+01  9.681009377E+01  1.327182539E+02  3.015782986E-06  0.00000E+00  9.000E+00
       5     1     4     4   507     0 -1.655000644E+01 -1.461612455E+01 -5.760259985E-01  2.259265624E+01  4.750000000E+00  0.00000E+00  9.000E+00
      -5     1     3     3     0   512  2.651799915E+01  2.239384417E+01  3.437876536E+01  4.908309834E+01  4.750000000E+00  0.00000E+00  9.000E+00
      21     1     1     2   511   502 -6.172795935E+01 -8.398823959E+01  2.256695483E+02  2.485781776E+02  4.672030912E-06  0.00000E+00  9.000E+00
      21     1     3     3   512   501  5.102267362E+00  8.637557012E-04  1.220025827E+01  1.322419883E+01  1.685873940E-07  0.00000E+00  9.000E+00
#rwgt            1          17   13.165767524603883                1     2278469           0
<weights>
0.74819E+01
</weights>
</event>
<event>
     15  10001  1.35417E+01  3.42355E+01 -1.00000E+00  3.90829E-01
      21    -1     0     0   502   501  0.000000000E+00  0.000000000E+00  2.076103611E+02  2.076103611E+02  0.000000000E+00  0.00000E+00  9.000E+00
       2    -1     0     0   507     0  0.000000000E+00  0.000000000E+00 -7.399143566E+02  7.399143566E+02  0.000000000E+00  0.00000E+00  9.000E+00
      -6     2     1     2     0   501 -1.564705998E+01  9.175109650E+01  1.048246983E+02  2.222859551E+02  1.725100990E+02  0.00000E+00  9.000E+00
       6     2     1     2   507     0 -1.858496595E+01 -9.224180792E+01 -1.853068878E+02  2.721217614E+02  1.756634802E+02  0.00000E+00  9.000E+00
     -24     2     3     3     0     0 -4.557606302E+01  1.213477947E+02  8.302573249E+01  1.740704873E+02  8.126990517E+01  0.00000E+00  9.000E+00
      24     2     4     4     0     0  5.761689850E+01 -4.702872574E+01 -9.762361432E+01  1.467995924E+02  8.055024660E+01  0.00000E+00  9.000E+00
     -11     1     6     6     0     0  1.011527986E+01 -5.446800336E+01 -2.769446348E+01  6.193597973E+01  2.311553887E-06  0.00000E+00  9.000E+00
      12     1     6     6     0     0  4.750161864E+01  7.439277620E+00 -6.992915084E+01  8.486361271E+01  1.651812370E-06  0.00000E+00  9.000E+00
      13     1     5     5     0     0  2.279563718E+01  2.194434642E+01  2.426436942E+01  3.987424028E+01  1.305872339E-06  0.00000E+00  9.000E+00
     -14     1     5     5     0     0 -6.837170020E+01  9.940344827E+01  5.876136307E+01  1.341962470E+02  5.266838559E-06  0.00000E+00  9.000E+00
       5     1     4     4   511     0 -4.696088515E+01 -3.229220619E+01 -5.059754383E+01  7.635957868E+01  4.750000000E+00  0.00000E+00  9.000E+00
      -5     1     3     3     0   512  2.933001550E+01 -2.785589113E+01  2.211933637E+01  4.634682320E+01  4.750000000E+00  0.00000E+00  9.000E+00
       2     1     1     2   502     0  3.423202594E+01  4.907114206E-01 -4.518218060E+02  4.531170012E+02  0.000000000E+00  0.00000E+00  9.000E+00
      21     1     4     4   507   511 -2.924097931E+01 -1.292087599E+01 -3.708572964E+01  4.896259031E+01  4.768371582E-07  0.00000E+00  9.000E+00
      21     1     3     3   512   501  5.989875340E-01 -1.740807062E+00 -3.203706003E-01  1.868644593E+00  9.416956201E-08  0.00000E+00  9.000E+00
#rwgt            1          17   28.542467065255607                1     2306853           0
<weights>
0.14305E+02
</weights>
</event>
<event>
     15  10001  1.35417E+01  6.16043E+01 -1.00000E+00  2.86920E-01
      21    -1     0     0   512   501  0.000000000E+00  0.000000000E+00  4.725254534E+02  4.725254534E+02  0.000000000E+00  0.00000E+00  9.000E+00
      21    -1     0     0   507   502  0.000000000E+00  0.000000000E+00 -3.262557674E+02  3.262557674E+02  0.000000000E+00  0.00000E+00  9.000E+00
      -6     2     1     2     0   501 -5.128970996E+01  8.214324708E+01 -5.685721320E+00  1.978707300E+02  1.724597083E+02  0.00000E+00  9.000E+00
       6     2     1     2   507     0 -1.005289965E+01 -7.647091105E+01 -1.814419410E+02  2.618693679E+02  1.723529136E+02  0.00000E+00  9.000E+00
     -24     2     3     3     0     0  3.632912569E+00  1.059884990E+02  1.484112981E+01  1.341702934E+02  8.083717283E+01  0.00000E+00  9.000E+00
      24     2     4     4     0     0  2.129933378E+01 -8.824225475E+01 -1.198637948E+02  1.706345876E+02  8.067512643E+01  0.00000E+00  9.000E+00
     -11     1     6     6     0     0 -3.015159592E+01 -2.085725512E+01 -3.595887482E+01  5.135352477E+01  9.536743164E-07  0.00000E+00  9.000E+00
      12     1     6     6     0     0  5.145092971E+01 -6.738499963E+01 -8.390491997E+01  1.192810628E+02  9.536743164E-07  0.00000E+00  9.000E+00
      13     1     5     5     0     0 -2.212513705E+01  4.243636022E+01 -2.589012481E+01  5.441199244E+01  3.371747881E-07  0.00000E+00  9.000E+00
     -14     1     5     5     0     0  2.575804962E+01  6.355213879E+01  4.073125462E+01  7.975830093E+01  2.384185791E-06  0.00000E+00  9.000E+00
       5     1     4     4   511     0 -2.063843813E+01 -4.582218437E+00  4.666980945E+00  2.216495129E+01  4.750000000E+00  0.00000E+00  9.000E+00
      -5     1     3     3     0   513 -4.176784590E+01 -1.672142302E+01 -1.380741212E+01  4.730080410E+01  4.750000000E+00  0.00000E+00  9.000E+00
      21     1     4     4   507   511 -1.071379530E+01  1.635356213E+01 -6.624512720E+01  6.906982903E+01  1.651812370E-06  0.00000E+00  9.000E+00
      21     1     1     2   512   502  6.134260961E+01 -5.672336024E+00  3.333973483E+02  3.390411229E+02  6.607249480E-06  0.00000E+00  9.000E+00
      21     1     3     3   513   501 -1.315477663E+01 -7.123828917E+00 -6.719439004E+00  1.639963253E+01  6.194296387E-07  0.00000E+00  9.000E+00
#rwgt            1          17   43.265217070428008                1     2334015           0
<weights>
0.13802E+02
</weights>
</event>
<event>
     14  10001  1.35417E+01  2.21387E+02 -1.00000E+00  2.32186E-01
      21    -1     0     0   512   501  0.000000000E+00  0.000000000E+00  5.998515791E+02  5.998515791E+02  0.000000000E+00  0.00000E+00  9.000E+00
      21    -1     0     0   501   502  0.000000000E+00  0.000000000E+00 -2.357630453E+02  2.357630453E+02  0.000000000E+00  0.00000E+00  9.000E+00
      -6     2     1     2     0   502  1.854246215E+02  1.153541358E+02  1.402693707E+02  3.117396917E+02  1.726767852E+02  0.00000E+00  9.000E+00
       6     2     1     2   507     0  3.361957833E+01 -8.323100847E+01 -1.781114273E+01  1.961594134E+02  1.735038958E+02  0.00000E+00  9.000E+00
     -24     2     3     3     0     0  1.836712920E+02  4.564253288E+01  9.009701975E+01  2.245630622E+02  8.057736422E+01  0.00000E+00  9.000E+00
      24     2     4     4     0     0 -1.580602528E+01 -3.212614634E+01 -6.129575214E+01  1.126844412E+02  8.751396661E+01  0.00000E+00  9.000E+00
     -11     1     6     6     0     0  4.541409306E+00 -4.823872903E+01 -7.015440079E+01  8.525983420E+01  2.523185073E-06  0.00000E+00  9.000E+00
      12     1     6     6     0     0 -2.034743459E+01  1.611258269E+01  8.858648647E+00  2.742460704E+01  1.244581522E-06  0.00000E+00  9.000E+00
      13     1     5     5     0     0  8.152792659E+01  4.165162589E+01  5.224769040E+00  9.170037603E+01  1.780174318E-06  0.00000E+00  9.000E+00
     -14     1     5     5     0     0  1.021433654E+02  3.990906989E+00  8.487225071E+01  1.328626862E+02  3.303624740E-06  0.00000E+00  9.000E+00
       5     1     4     4   507     0  4.942560361E+01 -5.110486213E+01  4.348460941E+01  8.347497218E+01  4.750000000E+00  0.00000E+00  9.000E+00
      -5     1     3     3     0   511  4.241559579E+00  6.596526634E+01  4.403517076E+01  7.956799579E+01  4.750000000E+00  0.00000E+00  9.000E+00
      21     1     1     2   512   507 -2.190441999E+02 -3.212312731E+01  2.416303059E+02  3.277155192E+02  3.814697266E-06  0.00000E+00  9.000E+00
      21     1     3     3   511   502 -2.488230085E+00  3.746336562E+00  6.137180148E+00  7.608633699E+00  3.153981341E-07  0.00000E+00  9.000E+00
#rwgt            1          17   20.846136718247948                1     2352505           0
<weights>
0.15719E+02
</weights>
</event>
<event>
     14  10001  1.35417E+01  7.08379E+01 -1.00000E+00  6.96029E-01
      21    -1     0     0   511   501  0.000000000E+00  0.000000000E+00  2.439461767E+02  2.439461767E+02  0.000000000E+00  0.00000E+00  9.000E+00
      21    -1     0     0   501   502  0.000000000E+00  0.000000000E+00 -3.250029791E+02  3.250029791E+02  0.000000000E+00  0.00000E+00  9.000E+00
      -6     2     1     2     0   502  1.185437332E+02 -6.068541811E+01 -2.182242922E+01  2.189413145E+02  1.724057543E+02  0.00000E+00  9.000E+00
       6     2     1     2   507     0 -1.845458228E+02  3.496137434E+01  4.349047846E+00  2.548193247E+02  1.721467851E+02  0.00000E+00  9.000E+00
     -24     2     3     3     0     0  6.924176858E+01 -9.370972015E+01 -4.551235408E+01  1.545381371E+02  9.074539815E+01  0.00000E+00  9.000E+00
      24     2     4     4     0     0 -1.631991288E+02  8.131958788E+01 -1.535023325E+01  1.999067626E+02  8.050001882E+01  0.00000E+00  9.000E+00
     -11     1     6     6     0     0 -1.649733181E+02  6.182546003E+01 -1.956806514E+00  1.761885702E+02  6.110275612E-06  0.00000E+00  9.000E+00
      12     1     6     6     0     0  1.774189238E+00  1.949412785E+01 -1.339342674E+01  2.371819234E+01  1.192092896E-06  0.00000E+00  9.000E+00
      13     1     5     5     0     0  1.803180582E+01  1.757098302E+01 -8.397769181E+00  2.654068561E+01  1.059555342E-06  0.00000E+00  9.000E+00
     -14     1     5     5     0     0  5.120996276E+01 -1.112807032E+02 -3.711458489E+01  1.279974515E+02  3.053247565E-06  0.00000E+00  9.000E+00
       5     1     4     4   507     0 -2.134669394E+01 -4.635821355E+01  1.969928110E+01  5.491256215E+01  4.750000000E+00  0.00000E+00  9.000E+00
      -5     1     3     3     0   512  4.733357446E+01  3.300372524E+01  2.320479178E+01  6.237578066E+01  4.750000000E+00  0.00000E+00  9.000E+00
      21     1     1     2   511   507  6.600208952E+01  2.572404377E+01 -6.358342105E+01  9.518851654E+01  1.507891493E-06  0.00000E+00  9.000E+00
      21     1     3     3   512   502  1.968390208E+00  2.057680266E-02  4.851330732E-01  2.027396733E+00  2.787751993E-08  0.00000E+00  9.000E+00
#rwgt            1          17   12.750106450813082                1     2379278           0
<weights>
0.13239E+02
</weights>
</event>
<event>
     15  10001  1.35417E+01  1.96925E+01 -1.00000E+00  2.95642E-01
      21    -1     0     0   502   512  0.000000000E+00  0.000000000E+00  1.467927520E+02  1.467927520E+02  0.000000000E+00  0.00000E+00  9.000E+00
      21    -1     0     0   507   502  0.000000000E+00  0.000000000E+00 -6.701420699E+02  6.701420699E+02  0.000000000E+00  0.00000E+00  9.000E+00
      -6     2     1     2     0   501 -1.722873727E+02  8.467767343E+01 -3.998751750E+02  4.759759158E+02  1.726258082E+02  0.00000E+00  9.000E+00
       6     2     1     2   507     0  1.850602883E+02 -6.968938555E+01 -1.538527736E+02  3.047559041E+02  1.734980242E+02  0.00000E+00  9.000E+00
     -24     2     3     3     0     0 -1.259094081E+02  8.310573513E+01 -3.914756419E+02  4.276278734E+02  8.278090103E+01  0.00000E+00  9.000E+00
      24     2     4     4     0     0  1.185547190E+02 -1.533100095E+01 -1.553658532E+02  2.121210005E+02  8.103400224E+01  0.00000E+00  9.000E+00
     -11     1     6     6     0     0  9.914640281E+01  7.701610429E+00 -7.003787851E+01  1.216331715E+02  3.303624740E-06  0.00000E+00  9.000E+00
      12     1     6     6     0     0  1.940831621E+01 -2.303261138E+01 -8.532797467E+01  9.048782894E+01  1.907348633E-06  0.00000E+00  9.000E+00
      13     1     5     5     0     0 -9.093441546E+01  1.069875842E+01 -2.008055909E+02  2.206953028E+02  6.031565972E-06  0.00000E+00  9.000E+00
     -14     1     5     5     0     0 -3.497499264E+01  7.240697671E+01 -1.906700510E+02  2.069325705E+02  0.000000000E+00  0.00000E+00  9.000E+00
       5     1     4     4   511     0  6.483957858E+01 -5.666596585E+01 -4.101706859E+00  8.633996256E+01  4.750000000E+00  0.00000E+00  9.000E+00
      -5     1     3     3     0   514 -4.258327956E+01 -1.278930127E+00 -7.534314567E+00  4.352355405E+01  4.750000000E+00  0.00000E+00  9.000E+00
      21     1     1     2   501   512 -1.277291567E+01 -1.498828789E+01  3.037863070E+01  3.620300197E+01  1.066240300E-06  0.00000E+00  9.000E+00
      21     1     4     4   507   511  1.665990732E+00  2.307581246E+00  5.614786476E+00  6.294941103E+00  2.598106231E-07  0.00000E+00  9.000E+00
      21     1     3     3   514   501 -3.794685001E+00  2.850868432E+00 -8.652184720E-01  4.824488375E+00  1.069359488E-07  0.00000E+00  9.000E+00
#rwgt            1          17   5.4451282384391373                1     2425470           0
<weights>
0.69177E+01
</weights>
</event>
<event>
     15  10001  1.35417E+01  4.75293E+01 -1.00000E+00  3.43748E-01
      21    -1     0     0   507   511  0.000000000E+00  0.000000000E+00  1.470513846E+03  1.470513846E+03  0.000000000E+00  0.00000E+00  9.000E+00
      21    -1     0     0   501   502  0.000000000E+00  0.000000000E+00 -9.660665875E+01  9.660665875E+01  0.000000000E+00  0.00000E+00  9.000E+00
      -6     2     1     2     0   502  7.007905907E+01 -8.315631071E+01  5.655991307E+01  2.127249636E+02  1.738586777E+02  0.00000E+00  9.000E+00
       6     2     1     2   507     0 -6.039700245E+01  1.296890491E+02  1.260858630E+03  1.280571393E+03  1.721382000E+02  0.00000E+00  9.000E+00
     -24     2     3     3     0     0  8.385766858E+01 -1.069658066E+02  1.594506370E+01  1.630734693E+02  8.868437837E+01  0.00000E+00  9.000E+00
      24     2     4     4     0     0 -8.852910392E+01  3.524341550E+01  7.127947274E+02  7.236188653E+02  8.042660184E+01  0.00000E+00  9.000E+00
     -11     1     6     6     0     0 -9.011154084E+01  5.433151426E+01  6.203589299E+02  6.292195206E+02  1.705984480E-05  0.00000E+00  9.000E+00
      12     1     6     6     0     0  1.582436928E+00 -1.908809877E+01  9.243579748E+01  9.439934468E+01  0.000000000E+00  0.00000E+00  9.000E+00
      13     1     5     5     0     0  9.999012628E+01 -8.302379404E+01  2.592770309E+01  1.325263050E+02  4.317944116E-06  0.00000E+00  9.000E+00
     -14     1     5     5     0     0 -1.613245770E+01 -2.394201253E+01 -9.982639392E+00  3.054716426E+01  1.192092896E-06  0.00000E+00  9.000E+00
       5     1     4     4   512     0  2.412126375E+01  8.715344105E+01  4.903091148E+02  4.986011915E+02  4.750000000E+00  0.00000E+00  9.000E+00
      -5     1     3     3     0   513 -1.065717661E+01  2.207801122E+01  3.612228135E+01  4.391350251E+01  4.750000000E+00  0.00000E+00  9.000E+00
      21     1     1     2   501   511 -9.682056613E+00 -4.653273835E+01  5.648864406E+01  7.382414826E+01  1.907348633E-06  0.00000E+00  9.000E+00
      21     1     4     4   507   512  4.010837716E+00  7.292192520E+00  5.775478827E+01  5.835133639E+01  1.168007728E-06  0.00000E+00  9.000E+00
      21     1     3     3   513   502 -3.121432896E+00  1.731484638E+00  4.492568026E+00  5.737991795E+00  1.192092896E-07  0.00000E+00  9.000E+00
#rwgt            1          17   3.9472111908982992                1     2446879           0
<weights>
0.20533E+02
</weights>
</event>
<event>
     15  10001  1.35417E+01  7.69204E+00 -1.00000E+00  2.60026E-01
      21    -1     0     0   507   501  0.000000000E+00  0.000000000E+00  5.747761791E+01  5.747761791E+01  0.000000000E+00  0.00000E+00  9.000E+00
       2    -1     0     0   501     0  0.000000000E+00  0.000000000E+00 -1.673732948E+03  1.673732948E+03  0.000000000E+00  0.00000E+00  9.000E+00
      -6     2     1     2     0   502  4.386609474E+01 -3.567175409E+01 -8.797978881E+02  8.983746804E+02  1.727311039E+02  0.00000E+00  9.000E+00
       6     2     1     2   507     0 -5.136522582E+01  3.738364306E+01 -1.197924753E+02  2.161229468E+02  1.682942893E+02  0.00000E+00  9.000E+00
     -24     2     3     3     0     0 -1.434597925E+01 -6.652192778E+01 -3.810235942E+02  3.950615317E+02  7.914329073E+01  0.00000E+00  9.000E+00
      24     2     4     4     0     0  3.472598987E+01  1.631870659E+01 -7.122955888E+01  1.139429882E+02  8.023191354E+01  0.00000E+00  9.000E+00
     -11     1     6     6     0     0  2.512965063E+01  5.987300107E+00 -8.818472463E+01  9.189065655E+01  1.907348633E-06  0.00000E+00  9.000E+00
      12     1     6     6     0     0  9.596339243E+00  1.033140648E+01  1.695516575E+01  2.205233168E+01  9.233911863E-07  0.00000E+00  9.000E+00
      13     1     5     5     0     0  2.730091338E+01 -4.867738633E+01 -1.603636597E+02  1.697979127E+02  4.264961200E-06  0.00000E+00  9.000E+00
     -14     1     5     5     0     0 -4.164689263E+01 -1.784454145E+01 -2.206599346E+02  2.252636190E+02  3.814697266E-06  0.00000E+00  9.000E+00
       5     1     4     4   512     0 -1.011906405E+01  6.026012846E-01 -5.220339993E+00  1.235204579E+01  4.750000000E+00  0.00000E+00  9.000E+00
      -5     1     3     3     0   511  5.241104903E+01  2.833261355E+01 -4.736132217E+02  4.773695647E+02  4.750000000E+00  0.00000E+00  9.000E+00
      21     1     4     4   507   512 -7.597215164E+01  2.046233518E+01 -4.334257640E+01  8.982791279E+01  3.504023184E-06  0.00000E+00  9.000E+00
       2     1     1     2   502     0  7.499131079E+00 -1.711888970E+00 -6.166649666E+02  6.167129386E+02  7.629394531E-06  0.00000E+00  9.000E+00
      21     1     3     3   511   502  5.801024965E+00  2.517560146E+00 -2.516107216E+01  2.594358402E+01  0.000000000E+00  0.00000E+00  9.000E+00
#rwgt            1          17   35.230480858077499                1     2476975           0
<weights>
0.14011E+02
</weights>
</event>
<event>
     15  10001  1.35417E+01  2.12089E+01 -1.00000E+00  1.83964E-01
      21    -1     0     0   511   501  0.000000000E+00  0.000000000E+00  1.379461724E+02  1.379461724E+02  0.000000000E+00  0.00000E+00  9.000E+00
      21    -1     0     0   501   502  0.000000000E+00  0.000000000E+00 -1.305425815E+03  1.305425815E+03  0.000000000E+00  0.00000E+00  9.000E+00
      -6     2     1     2     0   502 -6.005827896E+01  3.719438992E+02 -7.111246455E+02  8.233596112E+02  1.739928931E+02  0.00000E+00  9.000E+00
       6     2     1     2   507     0  6.663390992E+01 -3.517800746E+02 -4.218862926E+02  5.795412712E+02  1.723100179E+02  0.00000E+00  9.000E+00
     -24     2     3     3     0     0  5.631971470E+00  1.015875113E+02 -1.570519056E+02  2.028506497E+02  7.830289574E+01  0.00000E+00  9.000E+00
      24     2     4     4     0     0  4.541046094E+01 -1.638395723E+02 -1.212970453E+02  2.243245937E+02  8.187206315E+01  0.00000E+00  9.000E+00
     -11     1     6     6     0     0 -9.913489356E+00 -3.044703886E+00  5.934554392E+00  1.194849065E+01  9.794042543E-07  0.00000E+00  9.000E+00
      12     1     6     6     0     0  5.532395030E+01 -1.607948684E+02 -1.272315997E+02  2.123761031E+02  5.878843310E-06  0.00000E+00  9.000E+00
      13     1     5     5     0     0  3.377031813E+01  6.316741182E+01 -1.290781587E+02  1.476202132E+02  0.000000000E+00  0.00000E+00  9.000E+00
     -14     1     5     5     0     0 -2.813834666E+01  3.842009949E+01 -2.797374687E+01  5.523043646E+01  2.050954167E-06  0.00000E+00  9.000E+00
       5     1     4     4   513     0  2.052217550E+01 -1.684597431E+02 -2.685130282E+02  3.176816859E+02  4.750000000E+00  0.00000E+00  9.000E+00
      -5     1     3     3     0   512 -4.878322083E+01  2.313640135E+02 -4.580475924E+02  5.154990483E+02  4.750000000E+00  0.00000E+00  9.000E+00
      21     1     1     2   511   507 -6.575630965E+00 -2.016382461E+01 -3.446870462E+01  4.047110504E+01  1.066240300E-06  0.00000E+00  9.000E+00
      21     1     3     3   512   502 -1.690702959E+01  3.899237438E+01 -9.602514755E+01  1.050099132E+02  2.336015456E-06  0.00000E+00  9.000E+00
      21     1     4     4   507   513  7.012734785E-01 -1.948075924E+01 -3.207621915E+01  3.753499167E+01  0.000000000E+00  0.00000E+00  9.000E+00
#rwgt            1          17   1.3542899690228296                1     2496368           0
<weights>
0.22651E+02
</weights>
</event>
<event>
     14  10001  1.35417E+01  3.49086E+01 -1.00000E+00  7.52448E-01
      21    -1     0     0   507   501  0.000000000E+00  0.000000000E+00  4.881457565E+02  4.881457565E+02  0.000000000E+00  0.00000E+00  9.000E+00
      21    -1     0     0   501   512  0.000000000E+00  0.000000000E+00 -1.263004665E+02  1.263004665E+02  0.000000000E+00  0.00000E+00  9.000E+00
      -6     2     1     2     0   502 -4.215763819E+01  2.031927719E+01 -9.032935268E+00  1.790583122E+02  1.725982207E+02  0.00000E+00  9.000E+00
       6     2     1     2   507     0  8.382557272E+00 -2.914274519E+01  3.577741165E+02  3.981008173E+02  1.719371263E+02  0.00000E+00  9.000E+00
     -24     2     3     3     0     0 -9.247245252E+01  2.442535173E+00 -2.004149976E+01  1.243325465E+02  8.062133680E+01  0.00000E+00  9.000E+00
      24     2     4     4     0     0  4.054582508E+01 -7.188703672E+01  2.550689213E+02  2.798641192E+02  8.032471976E+01  0.00000E+00  9.000E+00
     -11     1     6     6     0     0  2.961996891E+01 -2.164368619E+01  2.567224411E+01  4.477561645E+01  1.752011592E-06  0.00000E+00  9.000E+00
      12     1     6     6     0     0  1.092585616E+01 -5.024335053E+01  2.293966772E+02  2.350885028E+02  2.697398305E-06  0.00000E+00  9.000E+00
      13     1     5     5     0     0 -8.003413495E+01  3.311432280E+01 -2.000994055E+00  8.663731938E+01  9.396006328E-07  0.00000E+00  9.000E+00
     -14     1     5     5     0     0 -1.243831757E+01 -3.067178762E+01 -1.804050570E+01  3.769522710E+01  8.259061849E-07  0.00000E+00  9.000E+00
       5     1     4     4   511     0 -2.248282239E+01  3.623093854E+01  9.504323654E+01  1.042781738E+02  4.750000000E+00  0.00000E+00  9.000E+00
      -5     1     3     3     0   502  5.031481433E+01  1.787674201E+01  1.100856449E+01  5.472576576E+01  4.750000000E+00  0.00000E+00  9.000E+00
      21     1     1     2   502   512  3.377508091E+01  8.823468009E+00  1.310410874E+01  3.728709354E+01  7.152557373E-07  0.00000E+00  9.000E+00
      21     1     4     4   507   511 -9.680445415E+00  6.513352988E+00  7.661958663E+00  1.395852432E+01  3.769728732E-07  0.00000E+00  9.000E+00
#rwgt            1          17   13.423294535874994                1     2513508           0
<weights>
0.23135E+02
</weights>
</event>
<event>
     15  10001  1.35417E+01  1.57065E+01 -1.00000E+00  3.41473E-01
      21    -1     0     0   502   511  0.000000000E+00  0.000000000E+00  2.325058181E+02  2.325058181E+02  0.000000000E+00  0.00000E+00  9.000E+00
      21    -1     0     0   507   502  0.000000000E+00  0.000000000E+00 -2.668026004E+02  2.668026004E+02  0.000000000E+00  0.00000E+00  9.000E+00
      -6     2     1     2     0   501  1.302408175E+02 -4.237162651E+01  1.537135783E+01  2.184188033E+02  1.694475427E+02  0.00000E+00  9.000E+00
       6     2     1     2   507     0 -1.388160800E+02  2.921259106E+01 -8.902361254E+01  2.385157016E+02  1.698271380E+02  0.00000E+00  9.000E+00
     -24     2     3     3     0     0  1.591328796E+02 -2.040819854E+01  6.771478376E+00  1.797663637E+02  8.081042428E+01  0.00000E+00  9.000E+00
      24     2     4     4     0     0 -4.222825473E+01  3.627789383E+01 -9.329332842E+01  1.393031723E+02  8.719184368E+01  0.00000E+00  9.000E+00
     -11     1     6     6     0     0 -6.206423492E+01  2.090382892E+01 -9.356240703E+01  1.142053560E+02  2.697398305E-06  0.00000E+00  9.000E+00
      12     1     6     6     0     0  1.983598019E+01  1.537406491E+01  2.690786020E-01  2.509781634E+01  1.111591918E-06  0.00000E+00  9.000E+00
      13     1     5     5     0     0  6.769035363E+01 -1.075655640E+01  4.302741538E+01  8.092617596E+01  1.846782373E-06  0.00000E+00  9.000E+00
     -14     1     5     5     0     0  9.144252596E+01 -9.651642146E+00 -3.625593701E+01  9.884018777E+01  3.600041597E-06  0.00000E+00  9.000E+00
       5     1     4     4   512     0 -9.316498391E+01 -6.998733910E+00 -2.426222361E-01  9.354847871E+01  4.750000000E+00  0.00000E+00  9.000E+00
      -5     1     3     3     0   514 -2.751744465E+01 -2.235085287E+01  6.891304985E+00  3.642558124E+01  4.750000000E+00  0.00000E+00  9.000E+00
      21     1     1     2   501   511  8.575262466E+00  1.315903544E+01  3.935547243E+01  4.237391356E+01  6.743495762E-07  0.00000E+00  9.000E+00
      21     1     4     4   507   512 -3.422841318E+00 -6.656885318E-02  4.512338121E+00  5.664050619E+00  1.460009660E-07  0.00000E+00  9.000E+00
      21     1     3     3   514   501 -1.374617459E+00  3.874249083E-01  1.708574472E+00  2.226858312E+00  5.575503985E-08  0.00000E+00  9.000E+00
#rwgt            1          17   61.570385512329693                1     2549713           0
<weights>
0.13654E+02
</weights>
</event>
<event>
     15  10001  1.35417E+01  9.53032E+01 -1.00000E+00  2.11082E-01
      21    -1     0     0   502   501  0.000000000E+00  0.000000000E+00  5.244782766E+02  5.244782766E+02  0.000000000E+00  0.00000E+00  9.000E+00
      21    -1     0     0   507   512  0.000000000E+00  0.000000000E+00 -4.451519486E+02  4.451519486E+02  0.000000000E+00  0.00000E+00  9.000E+00
      -6     2     1     2     0   501  2.019873681E+02 -1.124359147E+02  8.676316615E+01  3.014230893E+02  1.728794377E+02  0.00000E+00  9.000E+00
       6     2     1     2   507     0 -1.884072282E+02  2.067665799E+02 -2.460318019E+02  4.112825334E+02  1.742755648E+02  0.00000E+00  9.000E+00
     -24     2     3     3     0     0  2.038642982E+02 -5.983769821E+01  7.146947968E+01  2.383018736E+02  8.086219293E+01  0.00000E+00  9.000E+00
      24     2     4     4     0     0 -1.693938634E+02  8.861477125E+01 -1.848254430E+02  2.766979317E+02  7.651432808E+01  0.00000E+00  9.000E+00
     -11     1     6     6     0     0 -1.468684728E+02  9.787660520E+01 -1.384572233E+02  2.243224929E+02  4.672030912E-06  0.00000E+00  9.000E+00
      12     1     6     6     0     0 -2.252539054E+01 -9.261833952E+00 -4.636821972E+01  5.237543877E+01  1.348699152E-06  0.00000E+00  9.000E+00
      13     1     5     5     0     0 -5.278262613E+00 -9.903678313E+00  9.013418556E+00  1.439390893E+01  7.539457465E-07  0.00000E+00  9.000E+00
     -14     1     5     5     0     0  2.091425608E+02 -4.993401989E+01  6.245606112E+01  2.239079647E+02  4.768371582E-06  0.00000E+00  9.000E+00
       5     1     4     4   513     0 -1.891309805E+01  1.106951773E+02 -5.768033062E+01  1.263357059E+02  4.750000000E+00  0.00000E+00  9.000E+00
      -5     1     3     3     0   511 -1.017892143E+01 -5.103463904E+01  1.015681599E+01  5.323408902E+01  4.750000000E+00  0.00000E+00  9.000E+00
      21     1     1     2   502   512 -1.358013994E+01 -9.433066523E+01  2.385949638E+02  2.569246025E+02  0.000000000E+00  0.00000E+00  9.000E+00
      21     1     3     3   511   501  8.301991379E+00 -1.563577448E+00  5.136870484E+00  9.887126664E+00  2.457562462E-07  0.00000E+00  9.000E+00
      21     1     4     4   507   513 -1.002667719E-01  7.456631413E+00 -3.526028325E+00  8.248895757E+00  1.460009660E-07  0.00000E+00  9.000E+00
#rwgt            1          17   13.632949970667465                1     2576246           0
<weights>
0.12722E+02
</weights>
</event>
</LesHouchesEvents>
