<LesHouchesEvents version="1.0">
<!--
file generated with POWHEG-BOX version 0.0
Input file powheg.input contained:
! Z production parameter
idvecbos 23
vdecaymode 11
 
numevts 100      ! number of events to be generated
ih1   1           ! hadron 1 (1 for protons, -1 for antiprotons)
ih2   1          ! hadron 2 (1 for protons, -1 for antiprotons)
ndns1 131         ! pdf set for hadron 1 (mlm numbering)
ndns2 131         ! pdf set for hadron 2 (mlm numbering)
ebeam1 7000d0      ! energy of beam 1
ebeam2 7000d0      ! energy of beam 2
 
! To be set only if using LHA pdfs
lhans1 10050      ! pdf set for hadron 1 (LHA numbering)
lhans2 10050      ! pdf set for hadron 2 (LHA numbering)	
! To be set only if using different pdf sets for the two incoming hadrons
! QCDLambda5  0.25 ! for not equal pdf sets
 
! Parameters to allow or not the use of stored data
use-old-grid    1 ! if 1 use old grid if file pwggrids.dat is present (<> 1 regenerate)
use-old-ubound  1 ! if 1 use norm of upper bounding function stored in pwgubound.dat, if present; <>
 
ncall1 100000   ! number of calls for initializing the integration grid
itmx1    5     ! number of iterations for initializing the integration grid
ncall2 100000   ! number of calls for computing the integral and finding upper bound
itmx2    5     ! number of iterations for computing the integral and finding upper bound
foldcsi   1    ! number of folds on csi integration
foldy     1    ! number of folds on  y  integration
foldphi   1    ! number of folds on phi integration
nubound 20000  ! number of bbarra calls to setup norm of upper bounding function
icsimax  1     ! <= 100, number of csi subdivision when computing the upper bounds
iymax    1     ! <= 100, number of y subdivision when computing the upper bounds
xupbound 2d0   ! increase upper bound for radiation generation
 
! OPTIONAL PARAMETERS
 
#renscfact  1d0   ! (default 1d0) ren scale factor: muren  = muref * renscfact
#facscfact  1d0   ! (default 1d0) fac scale factor: mufact = muref * facscfact
#ptsupp     0d0   ! (default 0d0)  mass param for Born suppression factor (generation cut) If < 0 su
#bornonly   0      ! (default 0) if 1 do Born only
#smartsig   1      ! (default 1) remember equal amplitudes (0 do not remember)
#withsubtr  0      ! (default 1) subtract real counterterms (0 do not subtract)
#withdamp    1      ! (default 0, do not use) use Born-zero damping factor
#ptsqmin    0.8    ! (default 0.8 GeV) minimum pt for generation of radiation
#charmthr   1.5    ! (default 1.5 GeV) charm treshold for gluon splitting
#bottomthr  5.0    ! (default 5.0 GeV) bottom treshold for gluon splitting
testplots  1      ! (default 0, do not) do NLO and PWHG distributions
#hfact    100d0    ! (default no dumping factor) dump factor for high-pt radiation: > 0 dumpfac=h**2
#testsuda  1       ! (default 0, do not test) test Sudakov form factor
#radregion 1       ! (default all regions) only generate radiation in the selected singular region
#charmthrpdf  1.5  ! (default 1.5 GeV) pdf charm treshold
#bottomthrpdf 5.0  ! (default 5.0 GeV) pdf bottom treshold
 
#iseed    12345    ! initialize random number sequence
#rand1     -1      ! initialize random number sequence
#rand2     -1      ! initialize random number sequence
 
#iupperisr 1 ! (default 1) choice of ISR upper bounding functional form
#iupperfsr 2 ! (default 2) choice of FSR upper bounding functional form
 
 
#pdfreweight 1 ! (default 0) write extra pdf infos on LHEF
 
#manyseeds 1 ! (default 0) allow for the generation of different statistically independent samples (
End of powheg.input content
 Random number generator initialized with:     54217137      24564861             0
-->
<init>
     2212     2212  7.00000E+03  7.00000E+03     -1     -1     -1     -1      3      1
  1.79107E+03  9.01675E-01  1.00000E+00  10011
</init>
<event>
      6  10011  1.00000E+00  8.91735E+00 -1.00000E+00  2.01629E-01
      -1    -1     0     0     0   501  0.000000000E+00  0.000000000E+00  2.266824464E+01  2.266824464E+01  0.000000000E+00  0.00000E+00  9.000E+00
       1    -1     0     0   511     0  0.000000000E+00  0.000000000E+00 -1.428298023E+02  1.428298023E+02  0.000000000E+00  0.00000E+00  9.000E+00
      23     2     1     2     0     0 -4.800594755E+00 -7.514874718E+00 -7.645819172E+01  1.208941990E+02  9.322034773E+01  0.00000E+00  9.000E+00
      11     1     3     3     0     0  4.350242547E+01  1.941501253E+00 -2.768142891E+01  5.159934066E+01  5.109994876E-04  0.00000E+00  9.000E+00
     -11     1     3     3     0     0 -4.830302023E+01 -9.456375971E+00 -4.877676280E+01  6.929485839E+01  5.110003775E-04  0.00000E+00  9.000E+00
      21     1     1     2   511   501  4.800594755E+00  7.514874718E+00 -4.370336597E+01  4.460384792E+01  4.768371582E-07  0.00000E+00  9.000E+00
</event>
<event>
      6  10011  1.00000E+00  1.05277E+01 -1.00000E+00  1.93154E-01
      21    -1     0     0   511   501  0.000000000E+00  0.000000000E+00  2.313326778E+01  2.313326778E+01  0.000000000E+00  0.00000E+00  9.000E+00
       1    -1     0     0   501     0  0.000000000E+00  0.000000000E+00 -2.879458341E+02  2.879458341E+02  0.000000000E+00  0.00000E+00  9.000E+00
      23     2     1     2     0     0  7.886728304E+00  6.973605197E+00 -2.785216758E+02  2.937940987E+02  9.289680748E+01  0.00000E+00  9.000E+00
      11     1     3     3     0     0  1.211039197E+01 -3.432287325E-01  2.727156353E+00  1.241840496E+01  5.109990835E-04  0.00000E+00  9.000E+00
     -11     1     3     3     0     0 -4.223663670E+00  7.316833930E+00 -2.812488322E+02  2.813756937E+02  5.109985977E-04  0.00000E+00  9.000E+00
       1     1     1     2   511     0 -7.886728304E+00 -6.973605197E+00  1.370910951E+01  1.728500322E+01  5.057621821E-07  0.00000E+00  9.000E+00
</event>
<event>
      6  10011  1.00000E+00  1.84592E+01 -1.00000E+00  1.69251E-01
       2    -1     0     0   501     0  0.000000000E+00  0.000000000E+00  3.090066510E+03  3.090066510E+03  0.000000000E+00  0.00000E+00  9.000E+00
      -2    -1     0     0     0   511  0.000000000E+00  0.000000000E+00 -1.011685166E+00  1.011685166E+00  0.000000000E+00  0.00000E+00  9.000E+00
      23     2     1     2     0     0 -6.307742745E+00 -1.734806767E+01  2.689516119E+03  2.691113296E+03  9.084643479E+01  0.00000E+00  9.000E+00
      11     1     3     3     0     0  3.612848901E+01 -8.150545431E+00  5.975964730E+02  5.987430531E+02  5.108277047E-04  0.00000E+00  9.000E+00
     -11     1     3     3     0     0 -4.243623176E+01 -9.197522239E+00  2.091919646E+03  2.092370243E+03  5.097440518E-04  0.00000E+00  9.000E+00
      21     1     1     2   501   511  6.307742745E+00  1.734806767E+01  3.995387061E+02  3.999648993E+02  0.000000000E+00  0.00000E+00  9.000E+00
</event>
<event>
      6  10011  1.00000E+00  7.90000E+01 -1.00000E+00  1.28590E-01
       3    -1     0     0   501     0  0.000000000E+00  0.000000000E+00  1.483320605E+02  1.483320605E+02  0.000000000E+00  0.00000E+00  9.000E+00
      21    -1     0     0   511   501  0.000000000E+00  0.000000000E+00 -9.807914381E+01  9.807914381E+01  0.000000000E+00  0.00000E+00  9.000E+00
      23     2     1     2     0     0  2.317721436E+01  7.552357087E+01 -3.855959639E+01  1.275471832E+02  9.241454679E+01  0.00000E+00  9.000E+00
      11     1     3     3     0     0  1.035435651E+01  4.451422804E+01  2.758178892E+01  5.338056086E+01  5.109992651E-04  0.00000E+00  9.000E+00
     -11     1     3     3     0     0  1.282285785E+01  3.100934282E+01 -6.614138531E+01  7.416662239E+01  5.109994876E-04  0.00000E+00  9.000E+00
       3     1     1     2   511     0 -2.317721436E+01 -7.552357087E+01  8.881251308E+01  1.188640211E+02  2.132480600E-06  0.00000E+00  9.000E+00
</event>
<event>
      6  10011  1.00000E+00  1.21419E+01 -1.00000E+00  1.86440E-01
      -2    -1     0     0     0   511  0.000000000E+00  0.000000000E+00  1.012356195E+00  1.012356195E+00  0.000000000E+00  0.00000E+00  9.000E+00
       2    -1     0     0   501     0  0.000000000E+00  0.000000000E+00 -3.568664811E+03  3.568664811E+03  0.000000000E+00  0.00000E+00  9.000E+00
      23     2     1     2     0     0  4.548502800E-01 -1.213333528E+01 -3.475522196E+03  3.476750265E+03  9.159934463E+01  0.00000E+00  9.000E+00
      11     1     3     3     0     0 -2.860258305E+01  1.287319568E+01 -2.776824526E+03  2.777001670E+03  5.051558031E-04  0.00000E+00  9.000E+00
     -11     1     3     3     0     0  2.905743333E+01 -2.500653095E+01 -6.986976703E+02  6.997485945E+02  5.102006072E-04  0.00000E+00  9.000E+00
      21     1     1     2   501   511 -4.548502800E-01  1.213333528E+01 -9.213025804E+01  9.292690224E+01  3.303624740E-06  0.00000E+00  9.000E+00
</event>
<event>
      6  10011  1.00000E+00  4.05794E+00 -1.00000E+00  2.61900E-01
       1    -1     0     0   501     0  0.000000000E+00  0.000000000E+00  2.910753877E+02  2.910753877E+02  0.000000000E+00  0.00000E+00  9.000E+00
      21    -1     0     0   511   501  0.000000000E+00  0.000000000E+00 -1.353127934E+01  1.353127934E+01  0.000000000E+00  0.00000E+00  9.000E+00
      23     2     1     2     0     0 -3.766726737E+00 -1.509531460E+00  2.832606620E+02  2.975962532E+02  9.116172641E+01  0.00000E+00  9.000E+00
      11     1     3     3     0     0  3.476872215E+00  9.308884301E-01 -6.662372227E+00  7.572476320E+00  5.109987576E-04  0.00000E+00  9.000E+00
     -11     1     3     3     0     0 -7.243598952E+00 -2.440419890E+00  2.899230342E+02  2.900237769E+02  5.110413120E-04  0.00000E+00  9.000E+00
       1     1     1     2   511     0  3.766726737E+00  1.509531460E+00 -5.716553693E+00  7.010413801E+00  1.884864366E-07  0.00000E+00  9.000E+00
</event>
<event>
      6  10011  1.00000E+00  3.87857E+01 -1.00000E+00  1.45644E-01
      -2    -1     0     0     0   501  0.000000000E+00  0.000000000E+00  8.262186632E+00  8.262186632E+00  0.000000000E+00  0.00000E+00  9.000E+00
       2    -1     0     0   511     0  0.000000000E+00  0.000000000E+00 -8.957263917E+02  8.957263917E+02  0.000000000E+00  0.00000E+00  9.000E+00
      23     2     1     2     0     0 -4.721327620E-01  3.878283181E+01 -3.803092137E+02  3.953526415E+02  1.008180647E+02  0.00000E+00  9.000E+00
      11     1     3     3     0     0  8.158295430E+00 -2.506592486E+01 -2.340680169E+02  2.355476489E+02  5.109914783E-04  0.00000E+00  9.000E+00
     -11     1     3     3     0     0 -8.630428192E+00  6.384875667E+01 -1.462411968E+02  1.598049926E+02  5.109843588E-04  0.00000E+00  9.000E+00
      21     1     1     2   511   501  4.721327620E-01 -3.878283181E+01 -5.071549914E+02  5.086359368E+02  5.394796609E-06  0.00000E+00  9.000E+00
</event>
<event>
      6  10011  1.00000E+00  7.84045E+00 -1.00000E+00  2.08754E-01
      21    -1     0     0   511   501  0.000000000E+00  0.000000000E+00  4.268999323E+02  4.268999323E+02  0.000000000E+00  0.00000E+00  9.000E+00
       2    -1     0     0   501     0  0.000000000E+00  0.000000000E+00 -6.927724748E+00  6.927724748E+00  0.000000000E+00  0.00000E+00  9.000E+00
      23     2     1     2     0     0  7.596994568E+00 -1.938660645E+00  2.968224085E+02  3.104285252E+02  9.055856859E+01  0.00000E+00  9.000E+00
      11     1     3     3     0     0  4.708821758E+01 -1.395124543E+01  1.448035141E+02  1.529051836E+02  5.109985977E-04  0.00000E+00  9.000E+00
     -11     1     3     3     0     0 -3.949122302E+01  1.201258479E+01  1.520188945E+02  1.575233416E+02  5.110021574E-04  0.00000E+00  9.000E+00
       2     1     1     2   511     0 -7.596994568E+00  1.938660645E+00  1.231497991E+02  1.233991319E+02  1.348699152E-06  0.00000E+00  9.000E+00
</event>
<event>
      6  10011  1.00000E+00  3.46469E+01 -1.00000E+00  1.48786E-01
      -2    -1     0     0     0   511  0.000000000E+00  0.000000000E+00  2.617856735E+01  2.617856735E+01  0.000000000E+00  0.00000E+00  9.000E+00
       2    -1     0     0   501     0  0.000000000E+00  0.000000000E+00 -2.336912628E+02  2.336912628E+02  0.000000000E+00  0.00000E+00  9.000E+00
      23     2     1     2     0     0  6.045957520E+00  3.411527932E+01 -2.023091577E+02  2.248343811E+02  9.176653940E+01  0.00000E+00  9.000E+00
      11     1     3     3     0     0 -3.644460230E+01  8.746385675E+00 -1.417787111E+02  1.466489387E+02  5.110021574E-04  0.00000E+00  9.000E+00
     -11     1     3     3     0     0  4.249055982E+01  2.536889364E+01 -6.053044655E+01  7.818544237E+01  5.110070519E-04  0.00000E+00  9.000E+00
      21     1     1     2   501   511 -6.045957520E+00 -3.411527932E+01 -5.203537778E+00  3.503544906E+01  1.206902071E-06  0.00000E+00  9.000E+00
</event>
<event>
      6  10011  1.00000E+00  1.40530E+01 -1.00000E+00  1.80045E-01
       2    -1     0     0   501     0  0.000000000E+00  0.000000000E+00  1.684226603E+03  1.684226603E+03  0.000000000E+00  0.00000E+00  9.000E+00
      -2    -1     0     0     0   511  0.000000000E+00  0.000000000E+00 -2.797493036E+00  2.797493036E+00  0.000000000E+00  0.00000E+00  9.000E+00
      23     2     1     2     0     0  1.139820242E+00  1.400668350E+01  1.652313775E+03  1.654694711E+03  8.761444425E+01  0.00000E+00  9.000E+00
      11     1     3     3     0     0 -2.209571722E+01  2.582628354E+01  1.482678900E+03  1.483068420E+03  5.111124946E-04  0.00000E+00  9.000E+00
     -11     1     3     3     0     0  2.323553746E+01 -1.181960004E+01  1.696348747E+02  1.716262913E+02  5.110163958E-04  0.00000E+00  9.000E+00
      21     1     1     2   501   511 -1.139820242E+00 -1.400668350E+01  2.911533471E+01  3.232938428E+01  2.023048729E-06  0.00000E+00  9.000E+00
</event>
<event>
      6  10011  1.00000E+00  2.72243E+01 -1.00000E+00  1.55991E-01
       3    -1     0     0   511     0  0.000000000E+00  0.000000000E+00  2.693553409E+02  2.693553409E+02  0.000000000E+00  0.00000E+00  9.000E+00
      -3    -1     0     0     0   501  0.000000000E+00  0.000000000E+00 -1.883840886E+01  1.883840886E+01  0.000000000E+00  0.00000E+00  9.000E+00
      23     2     1     2     0     0  9.309509963E+00  2.558306943E+01  1.632527258E+02  1.967814853E+02  1.064440700E+02  0.00000E+00  9.000E+00
      11     1     3     3     0     0 -2.580655015E+01  3.262271742E+01  1.492708829E+01  4.419318598E+01  5.109976800E-04  0.00000E+00  9.000E+00
     -11     1     3     3     0     0  3.511606011E+01 -7.039647992E+00  1.483256375E+02  1.525882993E+02  5.110128362E-04  0.00000E+00  9.000E+00
      21     1     1     2   511   501 -9.309509963E+00 -2.558306943E+01  8.726420620E+01  9.141226450E+01  1.348699152E-06  0.00000E+00  9.000E+00
</event>
<event>
      6  10011  1.00000E+00  7.93467E+00 -1.00000E+00  2.08071E-01
      -1    -1     0     0     0   511  0.000000000E+00  0.000000000E+00  4.399319769E+00  4.399319769E+00  0.000000000E+00  0.00000E+00  9.000E+00
       1    -1     0     0   501     0  0.000000000E+00  0.000000000E+00 -7.566084531E+02  7.566084531E+02  0.000000000E+00  0.00000E+00  9.000E+00
      23     2     1     2     0     0 -1.554194753E+00  7.780972998E+00 -7.440155861E+02  7.496019288E+02  9.099945206E+01  0.00000E+00  9.000E+00
      11     1     3     3     0     0 -1.874340289E+01 -2.391889384E+01 -6.118818808E+02  6.126359969E+02  5.108846754E-04  0.00000E+00  9.000E+00
     -11     1     3     3     0     0  1.718920814E+01  3.169986683E+01 -1.321337053E+02  1.369659319E+02  5.110021574E-04  0.00000E+00  9.000E+00
      21     1     1     2   501   511  1.554194753E+00 -7.780972998E+00 -8.193547230E+00  1.140584404E+01  2.064765462E-07  0.00000E+00  9.000E+00
</event>
<event>
      6  10011  1.00000E+00  4.08778E+01 -1.00000E+00  1.44227E-01
      21    -1     0     0   501   511  0.000000000E+00  0.000000000E+00  1.312268291E+02  1.312268291E+02  0.000000000E+00  0.00000E+00  9.000E+00
      -3    -1     0     0     0   501  0.000000000E+00  0.000000000E+00 -4.020180398E+01  4.020180398E+01  0.000000000E+00  0.00000E+00  9.000E+00
      23     2     1     2     0     0  3.400698151E+01  2.268302712E+01  8.261984995E+01  1.296956547E+02  9.123556728E+01  0.00000E+00  9.000E+00
      11     1     3     3     0     0  7.137188701E+00 -4.634326024E+00  9.022952929E+01  9.062993102E+01  5.110030473E-04  0.00000E+00  9.000E+00
     -11     1     3     3     0     0  2.686979281E+01  2.731735314E+01 -7.609679341E+00  3.906572370E+01  5.109987993E-04  0.00000E+00  9.000E+00
      -3     1     1     2     0   511 -3.400698151E+01 -2.268302712E+01  8.405175128E+00  4.173297832E+01  3.576278687E-07  0.00000E+00  9.000E+00
</event>
<event>
      6  10011  1.00000E+00  1.42935E+01 -1.00000E+00  1.79332E-01
      -1    -1     0     0     0   501  0.000000000E+00  0.000000000E+00  2.653307848E+02  2.653307848E+02  0.000000000E+00  0.00000E+00  9.000E+00
      21    -1     0     0   501   511  0.000000000E+00  0.000000000E+00 -6.901846383E+01  6.901846383E+01  0.000000000E+00  0.00000E+00  9.000E+00
      23     2     1     2     0     0  1.103138913E+01 -9.089108254E+00  2.573189377E+02  2.716905642E+02  8.601408904E+01  0.00000E+00  9.000E+00
      11     1     3     3     0     0 -1.711286706E+00  1.014196352E+01  2.455995520E+02  2.458148244E+02  5.110199553E-04  0.00000E+00  9.000E+00
     -11     1     3     3     0     0  1.274267583E+01 -1.923107178E+01  1.171938572E+01  2.587573981E+01  5.110001829E-04  0.00000E+00  9.000E+00
      -1     1     1     2     0   511 -1.103138913E+01  9.089108254E+00 -6.100661682E+01  6.265868440E+01  1.168007728E-06  0.00000E+00  9.000E+00
</event>
<event>
      6  10011  1.00000E+00  9.40653E+00 -1.00000E+00  1.98819E-01
       1    -1     0     0   511     0  0.000000000E+00  0.000000000E+00  6.183948426E+01  6.183948426E+01  0.000000000E+00  0.00000E+00  9.000E+00
      -1    -1     0     0     0   501  0.000000000E+00  0.000000000E+00 -4.778457055E+01  4.778457055E+01  0.000000000E+00  0.00000E+00  9.000E+00
      23     2     1     2     0     0  9.159396149E+00 -2.142028529E+00 -2.708431574E+00  9.040186531E+01  8.987034453E+01  0.00000E+00  9.000E+00
      11     1     3     3     0     0  3.029380964E+01 -3.451585165E+01  1.439248397E+01  4.812694166E+01  5.109997657E-04  0.00000E+00  9.000E+00
     -11     1     3     3     0     0 -2.113441349E+01  3.237382312E+01 -1.710091555E+01  4.227492366E+01  5.109982640E-04  0.00000E+00  9.000E+00
      21     1     1     2   511   501 -9.159396149E+00  2.142028529E+00  1.676334528E+01  1.922218950E+01  2.384185791E-07  0.00000E+00  9.000E+00
</event>
<event>
      6  10011  1.00000E+00  1.04665E+01 -1.00000E+00  1.93439E-01
      21    -1     0     0   511   501  0.000000000E+00  0.000000000E+00  1.520341717E+00  1.520341717E+00  0.000000000E+00  0.00000E+00  9.000E+00
       2    -1     0     0   501     0  0.000000000E+00  0.000000000E+00 -2.205545662E+03  2.205545662E+03  0.000000000E+00  0.00000E+00  9.000E+00
      23     2     1     2     0     0  9.455067919E+00 -4.488687135E+00 -2.167795903E+03  2.169355033E+03  8.156369486E+01  0.00000E+00  9.000E+00
      11     1     3     3     0     0  1.837062655E+01  3.572983150E+01 -9.139998379E+02  9.148823993E+02  5.104287318E-04  0.00000E+00  9.000E+00
     -11     1     3     3     0     0 -8.915558628E+00 -4.021851864E+01 -1.253796065E+03  1.254472634E+03  5.106567545E-04  0.00000E+00  9.000E+00
       2     1     1     2   511     0 -9.455067919E+00  4.488687135E+00 -3.622941716E+01  3.771097041E+01  0.000000000E+00  0.00000E+00  9.000E+00
</event>
<event>
      6  10011  1.00000E+00  2.46854E+01 -1.00000E+00  1.59126E-01
      21    -1     0     0   511   501  0.000000000E+00  0.000000000E+00  6.165546403E+00  6.165546403E+00  0.000000000E+00  0.00000E+00  9.000E+00
       1    -1     0     0   501     0  0.000000000E+00  0.000000000E+00 -6.387950815E+02  6.387950815E+02  0.000000000E+00  0.00000E+00  9.000E+00
      23     2     1     2     0     0  1.383609073E+01  2.044335767E+01 -5.400414914E+02  5.491383230E+02  9.642985577E+01  0.00000E+00  9.000E+00
      11     1     3     3     0     0  2.058949896E+01  6.906410703E+00 -5.311439145E+02  5.315877011E+02  5.109416397E-04  0.00000E+00  9.000E+00
     -11     1     3     3     0     0 -6.753408234E+00  1.353694697E+01 -8.897576849E+00  1.755062193E+01  5.109999882E-04  0.00000E+00  9.000E+00
       1     1     1     2   511     0 -1.383609073E+01 -2.044335767E+01 -9.258804366E+01  9.582230486E+01  0.000000000E+00  0.00000E+00  9.000E+00
</event>
<event>
      6  10011  1.00000E+00  4.86320E+00 -1.00000E+00  2.44862E-01
      -2    -1     0     0     0   501  0.000000000E+00  0.000000000E+00  1.550250243E+01  1.550250243E+01  0.000000000E+00  0.00000E+00  9.000E+00
       2    -1     0     0   511     0  0.000000000E+00  0.000000000E+00 -1.827897039E+02  1.827897039E+02  0.000000000E+00  0.00000E+00  9.000E+00
      23     2     1     2     0     0  3.078006991E+00  3.765182438E+00 -1.191355860E+02  1.498956280E+02  9.083920247E+01  0.00000E+00  9.000E+00
      11     1     3     3     0     0  3.578498171E+01  3.181385954E+01 -6.247056981E+01  7.870996549E+01  5.109985977E-04  0.00000E+00  9.000E+00
     -11     1     3     3     0     0 -3.270697472E+01 -2.804867710E+01 -5.666501618E+01  7.118566247E+01  5.109981527E-04  0.00000E+00  9.000E+00
      21     1     1     2   511   501 -3.078006991E+00 -3.765182438E+00 -4.815161552E+01  4.839657842E+01  6.743495762E-07  0.00000E+00  9.000E+00
</event>
<event>
      6  10011  1.00000E+00  4.06186E+00 -1.00000E+00  2.61803E-01
       2    -1     0     0   501     0  0.000000000E+00  0.000000000E+00  4.817321155E+02  4.817321155E+02  0.000000000E+00  0.00000E+00  9.000E+00
      21    -1     0     0   511   501  0.000000000E+00  0.000000000E+00 -1.816186426E+01  1.816186426E+01  0.000000000E+00  0.00000E+00  9.000E+00
      23     2     1     2     0     0 -4.046701611E+00  3.506088700E-01  4.774932986E+02  4.853905330E+02  8.710694924E+01  0.00000E+00  9.000E+00
      11     1     3     3     0     0  9.104711465E+00  6.301443502E+00  4.146369927E+00  1.182355044E+01  5.109983022E-04  0.00000E+00  9.000E+00
     -11     1     3     3     0     0 -1.315141308E+01 -5.950834632E+00  4.733469287E+02  4.735669826E+02  5.110840228E-04  0.00000E+00  9.000E+00
       2     1     1     2   511     0  4.046701611E+00 -3.506088700E-01 -1.392304735E+01  1.450344677E+01  1.685873940E-07  0.00000E+00  9.000E+00
</event>
<event>
      6  10011  1.00000E+00  7.55767E+00 -1.00000E+00  2.10885E-01
      -2    -1     0     0     0   501  0.000000000E+00  0.000000000E+00  1.264195671E+00  1.264195671E+00  0.000000000E+00  0.00000E+00  9.000E+00
       2    -1     0     0   511     0  0.000000000E+00  0.000000000E+00 -1.566462122E+03  1.566462122E+03  0.000000000E+00  0.00000E+00  9.000E+00
      23     2     1     2     0     0 -4.598625954E+00 -5.997583377E+00 -1.317155525E+03  1.319568805E+03  7.941054742E+01  0.00000E+00  9.000E+00
      11     1     3     3     0     0  3.239750432E-01 -3.023746256E+01 -2.129507961E+02  2.150870769E+02  5.110199553E-04  0.00000E+00  9.000E+00
     -11     1     3     3     0     0 -4.922600997E+00  2.423987918E+01 -1.104204729E+03  1.104481728E+03  5.099723806E-04  0.00000E+00  9.000E+00
      21     1     1     2   511   501  4.598625954E+00  5.997583377E+00 -2.480424010E+02  2.481575126E+02  5.394796609E-06  0.00000E+00  9.000E+00
</event>
<event>
      6  10011  1.00000E+00  3.82135E+01 -1.00000E+00  1.46050E-01
      -2    -1     0     0     0   501  0.000000000E+00  0.000000000E+00  1.404538821E+01  1.404538821E+01  0.000000000E+00  0.00000E+00  9.000E+00
      21    -1     0     0   501   511  0.000000000E+00  0.000000000E+00 -3.432504405E+02  3.432504405E+02  0.000000000E+00  0.00000E+00  9.000E+00
      23     2     1     2     0     0 -3.160233636E+01  2.148399472E+01 -2.511852577E+02  2.704202969E+02  9.258959747E+01  0.00000E+00  9.000E+00
      11     1     3     3     0     0  2.554760827E+01  3.160466331E+01 -1.269590471E+02  1.333046686E+02  5.110003775E-04  0.00000E+00  9.000E+00
     -11     1     3     3     0     0 -5.714994463E+01 -1.012066858E+01 -1.242262106E+02  1.371156282E+02  5.110021574E-04  0.00000E+00  9.000E+00
      -2     1     1     2     0   511  3.160233636E+01 -2.148399472E+01 -7.801979455E+01  8.687553185E+01  1.907348633E-06  0.00000E+00  9.000E+00
</event>
<event>
      6  10011  1.00000E+00  9.46777E+00 -1.00000E+00  1.98483E-01
       1    -1     0     0   501     0  0.000000000E+00  0.000000000E+00  1.802795486E+02  1.802795486E+02  0.000000000E+00  0.00000E+00  9.000E+00
      21    -1     0     0   511   501  0.000000000E+00  0.000000000E+00 -2.106214138E+01  2.106214138E+01  0.000000000E+00  0.00000E+00  9.000E+00
      23     2     1     2     0     0 -2.047761304E+00  9.243668737E+00  1.622304157E+02  1.914060492E+02  1.011332248E+02  0.00000E+00  9.000E+00
      11     1     3     3     0     0 -2.547351358E+01  4.808483872E+01  7.034767676E+01  8.893732194E+01  5.110012675E-04  0.00000E+00  9.000E+00
     -11     1     3     3     0     0  2.342575228E+01 -3.884116998E+01  9.188273894E+01  1.024687273E+02  5.110092766E-04  0.00000E+00  9.000E+00
       1     1     1     2   511     0  2.047761304E+00 -9.243668737E+00 -3.013008448E+00  9.935640794E+00  1.931411236E-07  0.00000E+00  9.000E+00
</event>
<event>
      6  10011  1.00000E+00  4.91567E+01 -1.00000E+00  1.39469E-01
      21    -1     0     0   511   501  0.000000000E+00  0.000000000E+00  1.338062734E+02  1.338062734E+02  0.000000000E+00  0.00000E+00  9.000E+00
       1    -1     0     0   501     0  0.000000000E+00  0.000000000E+00 -4.962960760E+01  4.962960760E+01  0.000000000E+00  0.00000E+00  9.000E+00
      23     2     1     2     0     0 -6.367832063E+00 -4.874247327E+01  2.407344879E+01  1.057906965E+02  9.053045089E+01  0.00000E+00  9.000E+00
      11     1     3     3     0     0 -9.342079533E+00 -6.737066756E+01 -8.098819697E+00  6.849578220E+01  5.109956916E-04  0.00000E+00  9.000E+00
     -11     1     3     3     0     0  2.974247470E+00  1.862819430E+01  3.217226849E+01  3.729491428E+01  5.109988202E-04  0.00000E+00  9.000E+00
       1     1     1     2   511     0  6.367832063E+00  4.874247327E+01  6.010321703E+01  7.764518454E+01  6.743495762E-07  0.00000E+00  9.000E+00
</event>
<event>
      6  10011  1.00000E+00  2.59915E+00 -1.00000E+00  3.16985E-01
       1    -1     0     0   511     0  0.000000000E+00  0.000000000E+00  1.804376371E+01  1.804376371E+01  0.000000000E+00  0.00000E+00  9.000E+00
      -1    -1     0     0     0   501  0.000000000E+00  0.000000000E+00 -1.201531678E+02  1.201531678E+02  0.000000000E+00  0.00000E+00  9.000E+00
      23     2     1     2     0     0 -2.579131393E+00 -3.219587417E-01 -1.018618404E+02  1.355860191E+02  8.944818869E+01  0.00000E+00  9.000E+00
      11     1     3     3     0     0  4.260411659E+01 -7.957129335E+00 -4.378522562E+01  6.160821894E+01  5.109992651E-04  0.00000E+00  9.000E+00
     -11     1     3     3     0     0 -4.518324798E+01  7.635170593E+00 -5.807661478E+01  7.397780013E+01  5.110003775E-04  0.00000E+00  9.000E+00
      21     1     1     2   511   501  2.579131393E+00  3.219587417E-01 -2.475637358E-01  2.610912479E+00  2.660389404E-08  0.00000E+00  9.000E+00
</event>
<event>
      6  10011  1.00000E+00  1.25231E+01 -1.00000E+00  1.85049E-01
       2    -1     0     0   501     0  0.000000000E+00  0.000000000E+00  2.687118257E+02  2.687118257E+02  0.000000000E+00  0.00000E+00  9.000E+00
      21    -1     0     0   511   501  0.000000000E+00  0.000000000E+00 -2.009228773E+01  2.009228773E+01  0.000000000E+00  0.00000E+00  9.000E+00
      23     2     1     2     0     0  5.513847474E+00 -1.124391677E+01  2.576174244E+02  2.733836679E+02  9.063699225E+01  0.00000E+00  9.000E+00
      11     1     3     3     0     0 -4.093712691E+01 -1.698225685E+01  1.376703179E+02  1.446283577E+02  5.110021574E-04  0.00000E+00  9.000E+00
     -11     1     3     3     0     0  4.645097438E+01  5.738340082E+00  1.199471065E+02  1.287553103E+02  5.110021574E-04  0.00000E+00  9.000E+00
       2     1     1     2   511     0 -5.513847474E+00  1.124391677E+01 -8.997886445E+00  1.542044548E+01  6.848052319E-07  0.00000E+00  9.000E+00
</event>
<event>
      6  10011  1.00000E+00  5.49735E+01 -1.00000E+00  1.36738E-01
      21    -1     0     0   511   501  0.000000000E+00  0.000000000E+00  3.321288147E+00  3.321288147E+00  0.000000000E+00  0.00000E+00  9.000E+00
       1    -1     0     0   501     0  0.000000000E+00  0.000000000E+00 -1.992324739E+03  1.992324739E+03  0.000000000E+00  0.00000E+00  9.000E+00
      23     2     1     2     0     0 -3.105052121E+01 -4.536460737E+01 -1.136097530E+03  1.140970303E+03  8.985295612E+01  0.00000E+00  9.000E+00
      11     1     3     3     0     0 -1.402661626E+01 -4.897780947E+01 -1.096906665E+03  1.098089161E+03  5.111124946E-04  0.00000E+00  9.000E+00
     -11     1     3     3     0     0 -1.702390495E+01  3.613202105E+00 -3.919086414E+01  4.288114273E+01  5.109934806E-04  0.00000E+00  9.000E+00
       1     1     1     2   511     0  3.105052121E+01  4.536460737E+01 -8.529059213E+02  8.546757239E+02  0.000000000E+00  0.00000E+00  9.000E+00
</event>
<event>
      6  10011  1.00000E+00  1.34504E+01 -1.00000E+00  1.81914E-01
       2    -1     0     0   501     0  0.000000000E+00  0.000000000E+00  2.276096266E+03  2.276096266E+03  0.000000000E+00  0.00000E+00  9.000E+00
      21    -1     0     0   511   501  0.000000000E+00  0.000000000E+00 -1.382730070E+00  1.382730070E+00  0.000000000E+00  0.00000E+00  9.000E+00
      23     2     1     2     0     0  1.254941414E+01 -4.839937990E+00  2.213633111E+03  2.214935163E+03  7.473494277E+01  0.00000E+00  9.000E+00
      11     1     3     3     0     0  7.520743530E+00  6.362086143E+00  3.764828179E+01  3.891568894E+01  5.110050496E-04  0.00000E+00  9.000E+00
     -11     1     3     3     0     0  5.028670605E+00 -1.120202413E+01  2.175984829E+03  2.176019474E+03  5.106567545E-04  0.00000E+00  9.000E+00
       2     1     1     2   511     0 -1.254941414E+01  4.839937990E+00  6.108042530E+01  6.254383383E+01  2.780414531E-06  0.00000E+00  9.000E+00
</event>
<event>
      6  10011  1.00000E+00  5.88314E+00 -1.00000E+00  2.26727E-01
      21    -1     0     0   511   501  0.000000000E+00  0.000000000E+00  3.649939705E+01  3.649939705E+01  0.000000000E+00  0.00000E+00  9.000E+00
       2    -1     0     0   501     0  0.000000000E+00  0.000000000E+00 -5.535105055E+02  5.535105055E+02  0.000000000E+00  0.00000E+00  9.000E+00
      23     2     1     2     0     0 -8.800830652E-01  5.816935597E+00 -5.495067379E+02  5.569860138E+02  9.078079818E+01  0.00000E+00  9.000E+00
      11     1     3     3     0     0  3.679101237E+01 -2.196797762E+01 -2.158984012E+02  2.201097232E+02  5.109772392E-04  0.00000E+00  9.000E+00
     -11     1     3     3     0     0 -3.767109543E+01  2.778491322E+01 -3.336083367E+02  3.368762906E+02  5.109416397E-04  0.00000E+00  9.000E+00
       2     1     1     2   511     0  8.800830652E-01 -5.816935597E+00  3.249562950E+01  3.302388866E+01  8.259061849E-07  0.00000E+00  9.000E+00
</event>
<event>
      6  10011  1.00000E+00  6.87072E+01 -1.00000E+00  1.31606E-01
      21    -1     0     0   501   511  0.000000000E+00  0.000000000E+00  1.191453197E+01  1.191453197E+01  0.000000000E+00  0.00000E+00  9.000E+00
      -3    -1     0     0     0   501  0.000000000E+00  0.000000000E+00 -9.886478822E+02  9.886478822E+02  0.000000000E+00  0.00000E+00  9.000E+00
      23     2     1     2     0     0 -6.809516478E+01  9.150152053E+00 -3.168023067E+02  3.370643668E+02  9.234721999E+01  0.00000E+00  9.000E+00
      11     1     3     3     0     0 -4.987060494E+01  4.495241652E+01 -1.337536661E+02  1.496590799E+02  5.110163958E-04  0.00000E+00  9.000E+00
     -11     1     3     3     0     0 -1.822455984E+01 -3.580226447E+01 -1.830486406E+02  1.874052869E+02  5.110128362E-04  0.00000E+00  9.000E+00
      -3     1     1     2     0   511  6.809516478E+01 -9.150152053E+00 -6.599310435E+02  6.634980474E+02  1.525878906E-05  0.00000E+00  9.000E+00
</event>
<event>
      6  10011  1.00000E+00  1.81851E+01 -1.00000E+00  1.69808E-01
      21    -1     0     0   511   501  0.000000000E+00  0.000000000E+00  5.297957156E+00  5.297957156E+00  0.000000000E+00  0.00000E+00  9.000E+00
       1    -1     0     0   501     0  0.000000000E+00  0.000000000E+00 -7.411507270E+02  7.411507270E+02  0.000000000E+00  0.00000E+00  9.000E+00
      23     2     1     2     0     0  6.481735376E+00  1.699069970E+01 -7.009885853E+02  7.071268310E+02  9.117379925E+01  0.00000E+00  9.000E+00
      11     1     3     3     0     0 -1.622415349E+01  2.805300338E+01 -9.069518152E+01  9.631100719E+01  5.109932582E-04  0.00000E+00  9.000E+00
     -11     1     3     3     0     0  2.270588887E+01 -1.106230368E+01 -6.102934038E+02  6.108158239E+02  5.110555493E-04  0.00000E+00  9.000E+00
       1     1     1     2   511     0 -6.481735376E+00 -1.699069970E+01 -3.486418457E+01  3.932185315E+01  6.743495762E-07  0.00000E+00  9.000E+00
</event>
<event>
      6  10011  1.00000E+00  1.95932E+01 -1.00000E+00  1.67067E-01
       3    -1     0     0   501     0  0.000000000E+00  0.000000000E+00  9.566547669E+00  9.566547669E+00  0.000000000E+00  0.00000E+00  9.000E+00
      21    -1     0     0   511   501  0.000000000E+00  0.000000000E+00 -8.648953845E+02  8.648953845E+02  0.000000000E+00  0.00000E+00  9.000E+00
      23     2     1     2     0     0  4.068368545E+00 -1.916621307E+01 -2.267738939E+02  2.456016841E+02  9.224908087E+01  0.00000E+00  9.000E+00
      11     1     3     3     0     0 -3.783455114E+01  1.183239000E+01 -1.268592415E+02  1.329087126E+02  5.109985977E-04  0.00000E+00  9.000E+00
     -11     1     3     3     0     0  4.190291968E+01 -3.099860308E+01 -9.991465237E+01  1.126929715E+02  5.110057170E-04  0.00000E+00  9.000E+00
       3     1     1     2   511     0 -4.068368545E+00  1.916621307E+01 -6.285549430E+02  6.288602481E+02  7.629394531E-06  0.00000E+00  9.000E+00
</event>
<event>
      6  10011  1.00000E+00  3.20618E+01 -1.00000E+00  1.51027E-01
       1    -1     0     0   501     0  0.000000000E+00  0.000000000E+00  6.111004316E+02  6.111004316E+02  0.000000000E+00  0.00000E+00  9.000E+00
      -1    -1     0     0     0   511  0.000000000E+00  0.000000000E+00 -6.926964355E+00  6.926964355E+00  0.000000000E+00  0.00000E+00  9.000E+00
      23     2     1     2     0     0 -2.771595100E+01  1.611792042E+01  4.885395464E+02  4.980308753E+02  9.130116727E+01  0.00000E+00  9.000E+00
      11     1     3     3     0     0 -8.714374360E+00 -3.420977987E+01  2.966550552E+02  2.987481735E+02  5.110413120E-04  0.00000E+00  9.000E+00
     -11     1     3     3     0     0 -1.900157664E+01  5.032770029E+01  1.918844911E+02  1.992827019E+02  5.110128362E-04  0.00000E+00  9.000E+00
      21     1     1     2   501   511  2.771595100E+01 -1.611792042E+01  1.156339209E+02  1.199965206E+02  2.336015456E-06  0.00000E+00  9.000E+00
</event>
<event>
      6  10011  1.00000E+00  2.99184E+01 -1.00000E+00  1.53087E-01
      21    -1     0     0   511   501  0.000000000E+00  0.000000000E+00  8.688812544E+00  8.688812544E+00  0.000000000E+00  0.00000E+00  9.000E+00
       2    -1     0     0   501     0  0.000000000E+00  0.000000000E+00 -4.992531227E+02  4.992531227E+02  0.000000000E+00  0.00000E+00  9.000E+00
      23     2     1     2     0     0 -1.627264909E+01 -2.510599686E+01 -2.957289274E+02  3.108228430E+02  9.088526278E+01  0.00000E+00  9.000E+00
      11     1     3     3     0     0 -1.741664557E+01 -5.799684282E+01 -2.214363939E+02  2.295670923E+02  5.110057170E-04  0.00000E+00  9.000E+00
     -11     1     3     3     0     0  1.143996475E+00  3.289084596E+01 -7.429253354E+01  8.125575066E+01  5.109977078E-04  0.00000E+00  9.000E+00
       2     1     1     2   511     0  1.627264909E+01  2.510599686E+01 -1.948353827E+02  1.971190923E+02  3.814697266E-06  0.00000E+00  9.000E+00
</event>
<event>
      6  10011  1.00000E+00  5.22654E+01 -1.00000E+00  1.37958E-01
       5    -1     0     0   501     0  0.000000000E+00  0.000000000E+00  9.951779611E+01  9.951779611E+01  0.000000000E+00  0.00000E+00  9.000E+00
      21    -1     0     0   511   501  0.000000000E+00  0.000000000E+00 -6.087193625E+01  6.087193625E+01  0.000000000E+00  0.00000E+00  9.000E+00
      23     2     1     2     0     0 -1.656304522E+01  4.957148846E+01  3.000798947E+01  1.074154014E+02  8.891525230E+01  0.00000E+00  9.000E+00
      11     1     3     3     0     0 -2.473462884E-01  6.509190867E+01  4.607793883E+01  7.975082572E+01  5.110017124E-04  0.00000E+00  9.000E+00
     -11     1     3     3     0     0 -1.631569894E+01 -1.552042021E+01 -1.606994936E+01  2.766457569E+01  5.109990983E-04  0.00000E+00  9.000E+00
       5     1     1     2   511     0  1.656304522E+01 -4.957148846E+01  8.637870391E+00  5.297433096E+01  5.840038640E-07  0.00000E+00  9.000E+00
</event>
<event>
      6  10011  1.00000E+00  5.20220E+01 -1.00000E+00  1.38072E-01
       1    -1     0     0   501     0  0.000000000E+00  0.000000000E+00  1.350779097E+03  1.350779097E+03  0.000000000E+00  0.00000E+00  9.000E+00
      21    -1     0     0   511   501  0.000000000E+00  0.000000000E+00 -5.261186752E+00  5.261186752E+00  0.000000000E+00  0.00000E+00  9.000E+00
      23     2     1     2     0     0  4.281241629E+01  2.955304770E+01  6.019172011E+02  6.106220788E+02  8.859300498E+01  0.00000E+00  9.000E+00
      11     1     3     3     0     0  4.221293216E+01 -2.387266970E+01  2.483379714E+02  2.530288206E+02  5.109843588E-04  0.00000E+00  9.000E+00
     -11     1     3     3     0     0  5.994841319E-01  5.342571741E+01  3.535792297E+02  3.575932583E+02  5.109985977E-04  0.00000E+00  9.000E+00
       1     1     1     2   511     0 -4.281241629E+01 -2.955304770E+01  7.436007095E+02  7.454182053E+02  1.078959322E-05  0.00000E+00  9.000E+00
</event>
<event>
      6  10011  1.00000E+00  1.57954E+01 -1.00000E+00  1.75249E-01
      -1    -1     0     0     0   511  0.000000000E+00  0.000000000E+00  9.721761382E+00  9.721761382E+00  0.000000000E+00  0.00000E+00  9.000E+00
       1    -1     0     0   501     0  0.000000000E+00  0.000000000E+00 -2.858326311E+02  2.858326311E+02  0.000000000E+00  0.00000E+00  9.000E+00
      23     2     1     2     0     0  7.913095858E+00  1.367033858E+01 -2.515132865E+02  2.663219389E+02  8.613330715E+01  0.00000E+00  9.000E+00
      11     1     3     3     0     0  2.220920607E+01  3.803671972E+01 -7.057707323E+01  8.319353429E+01  5.110003775E-04  0.00000E+00  9.000E+00
     -11     1     3     3     0     0 -1.429611021E+01 -2.436638114E+01 -1.809362133E+02  1.831284046E+02  5.109879186E-04  0.00000E+00  9.000E+00
      21     1     1     2   501   511 -7.913095858E+00 -1.367033858E+01 -2.459758318E+01  2.923245356E+01  7.539457465E-07  0.00000E+00  9.000E+00
</event>
<event>
      6  10011  1.00000E+00  2.32769E+01 -1.00000E+00  1.61071E-01
      21    -1     0     0   511   501  0.000000000E+00  0.000000000E+00  2.574416378E+00  2.574416378E+00  0.000000000E+00  0.00000E+00  9.000E+00
       2    -1     0     0   501     0  0.000000000E+00  0.000000000E+00 -1.406591215E+03  1.406591215E+03  0.000000000E+00  0.00000E+00  9.000E+00
      23     2     1     2     0     0  1.143875285E+01  2.027237458E+01 -1.042278693E+03  1.046679396E+03  9.301112067E+01  0.00000E+00  9.000E+00
      11     1     3     3     0     0  1.825315920E+01  8.742883335E-01 -9.944612109E+02  9.946290978E+02  5.111124946E-04  0.00000E+00  9.000E+00
     -11     1     3     3     0     0 -6.814406346E+00  1.939808625E+01 -4.781748227E+01  5.205029774E+01  5.110008225E-04  0.00000E+00  9.000E+00
       2     1     1     2   511     0 -1.143875285E+01 -2.027237458E+01 -3.617381057E+02  3.624862361E+02  0.000000000E+00  0.00000E+00  9.000E+00
</event>
<event>
      6  10011  1.00000E+00  4.93665E+00 -1.00000E+00  2.43555E-01
       1    -1     0     0   501     0  0.000000000E+00  0.000000000E+00  1.243267043E+02  1.243267043E+02  0.000000000E+00  0.00000E+00  9.000E+00
      -1    -1     0     0     0   511  0.000000000E+00  0.000000000E+00 -2.048163054E+01  2.048163054E+01  0.000000000E+00  0.00000E+00  9.000E+00
      23     2     1     2     0     0  2.221469319E+00 -4.408585920E+00  1.049685138E+02  1.397454628E+02  9.211967732E+01  0.00000E+00  9.000E+00
      11     1     3     3     0     0 -6.395870682E+00 -4.376948827E+01  8.250169653E+01  9.361199279E+01  5.109959279E-04  0.00000E+00  9.000E+00
     -11     1     3     3     0     0  8.617340001E+00  3.936090235E+01  2.246681723E+01  4.613347005E+01  5.110019349E-04  0.00000E+00  9.000E+00
      21     1     1     2   501   511 -2.221469319E+00  4.408585920E+00 -1.123439976E+00  5.062872024E+00  9.657056180E-08  0.00000E+00  9.000E+00
</event>
<event>
      6  10011  1.00000E+00  7.44394E+00 -1.00000E+00  2.11778E-01
      21    -1     0     0   511   501  0.000000000E+00  0.000000000E+00  4.410098581E+01  4.410098581E+01  0.000000000E+00  0.00000E+00  9.000E+00
       3    -1     0     0   501     0  0.000000000E+00  0.000000000E+00 -1.764227047E+02  1.764227047E+02  0.000000000E+00  0.00000E+00  9.000E+00
      23     2     1     2     0     0 -5.985089928E+00 -4.426167378E+00 -1.642753278E+02  1.877144635E+02  9.052582064E+01  0.00000E+00  9.000E+00
      11     1     3     3     0     0 -1.749277073E+01 -3.536675126E+01 -1.432302311E+02  1.485654846E+02  5.109950380E-04  0.00000E+00  9.000E+00
     -11     1     3     3     0     0  1.150768080E+01  3.094058388E+01 -2.104509677E+01  3.914897887E+01  5.110000994E-04  0.00000E+00  9.000E+00
       3     1     1     2   511     0  5.985089928E+00  4.426167378E+00  3.195360891E+01  3.280922708E+01  9.536743164E-07  0.00000E+00  9.000E+00
</event>
<event>
      6  10011  1.00000E+00  4.58195E+00 -1.00000E+00  2.50206E-01
      -2    -1     0     0     0   501  0.000000000E+00  0.000000000E+00  9.213475145E-01  9.213475145E-01  0.000000000E+00  0.00000E+00  9.000E+00
       2    -1     0     0   511     0  0.000000000E+00  0.000000000E+00 -2.634381280E+03  2.634381280E+03  0.000000000E+00  0.00000E+00  9.000E+00
      23     2     1     2     0     0  4.844917843E-01 -4.556265623E+00 -2.130996651E+03  2.132818455E+03  8.801614363E+01  0.00000E+00  9.000E+00
      11     1     3     3     0     0 -3.618903784E+01  9.318107100E+00 -5.183941048E+02  5.197392822E+02  5.111124946E-04  0.00000E+00  9.000E+00
     -11     1     3     3     0     0  3.667352962E+01 -1.387437272E+01 -1.612602546E+03  1.613079172E+03  5.106567545E-04  0.00000E+00  9.000E+00
      21     1     1     2   511   501 -4.844917843E-01  4.556265623E+00 -5.024632822E+02  5.024841731E+02  5.394796609E-06  0.00000E+00  9.000E+00
</event>
<event>
      6  10011  1.00000E+00  4.27360E+00 -1.00000E+00  2.56776E-01
      21    -1     0     0   511   501  0.000000000E+00  0.000000000E+00  1.610575022E+02  1.610575022E+02  0.000000000E+00  0.00000E+00  9.000E+00
       1    -1     0     0   501     0  0.000000000E+00  0.000000000E+00 -2.343505906E+01  2.343505906E+01  0.000000000E+00  0.00000E+00  9.000E+00
      23     2     1     2     0     0  2.976464714E+00  3.066643878E+00  6.371789724E+01  1.104645561E+02  9.013425583E+01  0.00000E+00  9.000E+00
      11     1     3     3     0     0 -1.144373982E+01 -1.451570682E+01 -1.790442520E+01  2.573389530E+01  5.109979859E-04  0.00000E+00  9.000E+00
     -11     1     3     3     0     0  1.442020454E+01  1.758235069E+01  8.162232244E+01  8.473066077E+01  5.110003775E-04  0.00000E+00  9.000E+00
       1     1     1     2   511     0 -2.976464714E+00 -3.066643878E+00  7.390454590E+01  7.402800519E+01  1.348699152E-06  0.00000E+00  9.000E+00
</event>
<event>
      6  10011  1.00000E+00  7.05000E+00 -1.00000E+00  2.15047E-01
       1    -1     0     0   501     0  0.000000000E+00  0.000000000E+00  2.071843792E+02  2.071843792E+02  0.000000000E+00  0.00000E+00  9.000E+00
      21    -1     0     0   511   501  0.000000000E+00  0.000000000E+00 -1.084524701E+01  1.084524701E+01  0.000000000E+00  0.00000E+00  9.000E+00
      23     2     1     2     0     0 -6.720689020E+00 -2.129520935E+00  1.976407403E+02  2.108604767E+02  7.314763081E+01  0.00000E+00  9.000E+00
      11     1     3     3     0     0 -5.319224145E+00 -9.996448507E-01  2.040914917E+02  2.041632446E+02  5.110199553E-04  0.00000E+00  9.000E+00
     -11     1     3     3     0     0 -1.401464875E+00 -1.129876084E+00 -6.450751445E+00  6.697232132E+00  5.109985212E-04  0.00000E+00  9.000E+00
       1     1     1     2   511     0  6.720689020E+00  2.129520935E+00 -1.301608137E+00  7.169149465E+00  1.475139698E-07  0.00000E+00  9.000E+00
</event>
<event>
      6  10011  1.00000E+00  2.49369E+01 -1.00000E+00  1.58795E-01
      21    -1     0     0   511   501  0.000000000E+00  0.000000000E+00  2.036035037E+00  2.036035037E+00  0.000000000E+00  0.00000E+00  9.000E+00
       2    -1     0     0   501     0  0.000000000E+00  0.000000000E+00 -1.751319210E+03  1.751319210E+03  0.000000000E+00  0.00000E+00  9.000E+00
      23     2     1     2     0     0  1.996356200E+00  2.485690550E+01 -1.465465436E+03  1.468444101E+03  9.009595841E+01  0.00000E+00  9.000E+00
      11     1     3     3     0     0 -1.705595262E+00  3.996000359E+01 -2.765812468E+02  2.794582205E+02  5.107849725E-04  0.00000E+00  9.000E+00
     -11     1     3     3     0     0  3.701951462E+00 -1.510309810E+01 -1.188884190E+03  1.188985881E+03  5.108846754E-04  0.00000E+00  9.000E+00
       2     1     1     2   511     0 -1.996356200E+00 -2.485690550E+01 -2.838177383E+02  2.849111436E+02  3.814697266E-06  0.00000E+00  9.000E+00
</event>
<event>
      6  10011  1.00000E+00  2.89902E+00 -1.00000E+00  3.01311E-01
       2    -1     0     0   501     0  0.000000000E+00  0.000000000E+00  3.693088432E+03  3.693088432E+03  0.000000000E+00  0.00000E+00  9.000E+00
      -2    -1     0     0     0   511  0.000000000E+00  0.000000000E+00 -7.375797226E-01  7.375797226E-01  0.000000000E+00  0.00000E+00  9.000E+00
      23     2     1     2     0     0  1.175361094E+00 -2.650059334E+00  3.685305241E+03  3.686207290E+03  8.149268965E+01  0.00000E+00  9.000E+00
      11     1     3     3     0     0 -5.488066262E+00 -1.172174019E+00  1.713220521E+01  1.802790389E+01  5.110038260E-04  0.00000E+00  9.000E+00
     -11     1     3     3     0     0  6.663427355E+00 -1.477885315E+00  3.668173036E+03  3.668179386E+03  5.088297119E-04  0.00000E+00  9.000E+00
      21     1     1     2   501   511 -1.175361094E+00  2.650059334E+00  7.045611339E+00  7.618722158E+00  6.951036328E-07  0.00000E+00  9.000E+00
</event>
<event>
      6  10011  1.00000E+00  2.74686E+00 -1.00000E+00  3.08839E-01
      -4    -1     0     0     0   501  0.000000000E+00  0.000000000E+00  8.206511001E+02  8.206511001E+02  0.000000000E+00  0.00000E+00  9.000E+00
      21    -1     0     0   501   511  0.000000000E+00  0.000000000E+00 -2.086825212E+01  2.086825212E+01  0.000000000E+00  0.00000E+00  9.000E+00
      23     2     1     2     0     0 -2.281825833E+00  1.529213448E+00  8.177041871E+02  8.233887257E+02  9.654693517E+01  0.00000E+00  9.000E+00
      11     1     3     3     0     0  3.174232158E+01 -3.260961171E+01  4.975417771E+02  4.996186363E+02  5.110270743E-04  0.00000E+00  9.000E+00
     -11     1     3     3     0     0 -3.402414741E+01  3.413882516E+01  3.201624101E+02  3.237700894E+02  5.109701195E-04  0.00000E+00  9.000E+00
      -4     1     1     2     0   511  2.281825833E+00 -1.529213448E+00 -1.792133914E+01  1.813062656E+01  8.259061849E-07  0.00000E+00  9.000E+00
</event>
<event>
      6  10011  1.00000E+00  5.19207E+00 -1.00000E+00  2.35605E-01
      -1    -1     0     0     0   501  0.000000000E+00  0.000000000E+00  1.426213952E+00  1.426213952E+00  0.000000000E+00  0.00000E+00  9.000E+00
       1    -1     0     0   511     0  0.000000000E+00  0.000000000E+00 -1.983015678E+03  1.983015678E+03  0.000000000E+00  0.00000E+00  9.000E+00
      23     2     1     2     0     0  4.696679313E+00 -2.213330062E+00 -1.472792268E+03  1.475618205E+03  9.113212841E+01  0.00000E+00  9.000E+00
      11     1     3     3     0     0  8.870683469E+00 -2.193048851E+01 -1.396753997E+03  1.396954317E+03  5.102006072E-04  0.00000E+00  9.000E+00
     -11     1     3     3     0     0 -4.174004155E+00  1.971715844E+01 -7.603827131E+01  7.866388849E+01  5.109754593E-04  0.00000E+00  9.000E+00
      21     1     1     2   511   501 -4.696679313E+00  2.213330062E+00 -5.087971963E+02  5.088236872E+02  5.394796609E-06  0.00000E+00  9.000E+00
</event>
<event>
      6  10011  1.00000E+00  3.32432E+01 -1.00000E+00  1.49973E-01
       5    -1     0     0   501     0  0.000000000E+00  0.000000000E+00  9.892117419E+01  9.892117419E+01  0.000000000E+00  0.00000E+00  9.000E+00
      21    -1     0     0   511   501  0.000000000E+00  0.000000000E+00 -7.127132429E+01  7.127132429E+01  0.000000000E+00  0.00000E+00  9.000E+00
      23     2     1     2     0     0  9.107337374E+00 -3.197132252E+01  6.800575285E+01  1.179076253E+02  9.040086632E+01  0.00000E+00  9.000E+00
      11     1     3     3     0     0  4.990875687E+01 -1.541341552E+01  3.881881479E+01  6.507962639E+01  5.109972628E-04  0.00000E+00  9.000E+00
     -11     1     3     3     0     0 -4.080141949E+01 -1.655790700E+01  2.918693807E+01  5.282799893E+01  5.109989314E-04  0.00000E+00  9.000E+00
       5     1     1     2   511     0 -9.107337374E+00  3.197132252E+01 -4.035590295E+01  5.228487316E+01  4.768371582E-07  0.00000E+00  9.000E+00
</event>
<event>
      6  10011  1.00000E+00  2.51001E+00 -1.00000E+00  3.22369E-01
       1    -1     0     0   501     0  0.000000000E+00  0.000000000E+00  2.206338068E+03  2.206338068E+03  0.000000000E+00  0.00000E+00  9.000E+00
      -1    -1     0     0     0   511  0.000000000E+00  0.000000000E+00 -1.047485642E+00  1.047485642E+00  0.000000000E+00  0.00000E+00  9.000E+00
      23     2     1     2     0     0  2.458486065E+00 -5.059673301E-01  2.170952176E+03  2.172955533E+03  9.325287455E+01  0.00000E+00  9.000E+00
      11     1     3     3     0     0  1.322151073E+01 -4.506241073E+01  9.876587733E+02  9.887746364E+02  5.113402124E-04  0.00000E+00  9.000E+00
     -11     1     3     3     0     0 -1.076302467E+01  4.455644340E+01  1.183293402E+03  1.184180897E+03  5.113402124E-04  0.00000E+00  9.000E+00
      21     1     1     2   501   511 -2.458486065E+00  5.059673301E-01  3.433840651E+01  3.443002060E+01  0.000000000E+00  0.00000E+00  9.000E+00
</event>
<event>
      6  10011  1.00000E+00  6.03535E+01 -1.00000E+00  1.34540E-01
      -3    -1     0     0     0   501  0.000000000E+00  0.000000000E+00  4.484177798E+01  4.484177798E+01  0.000000000E+00  0.00000E+00  9.000E+00
      21    -1     0     0   501   511  0.000000000E+00  0.000000000E+00 -1.906108628E+02  1.906108628E+02  0.000000000E+00  0.00000E+00  9.000E+00
      23     2     1     2     0     0  2.664448663E+01 -5.415363116E+01 -1.153761793E+02  1.678784360E+02  1.059667972E+02  0.00000E+00  9.000E+00
      11     1     3     3     0     0 -4.667898027E+00  3.043227344E+01 -3.901163466E+01  4.969728542E+01  5.110030473E-04  0.00000E+00  9.000E+00
     -11     1     3     3     0     0  3.131238466E+01 -8.458590460E+01 -7.636454461E+01  1.181811506E+02  5.110074968E-04  0.00000E+00  9.000E+00
      -3     1     1     2     0   511 -2.664448663E+01  5.415363116E+01 -3.039290555E+01  6.757420472E+01  8.259061849E-07  0.00000E+00  9.000E+00
</event>
<event>
      6  10011  1.00000E+00  2.71663E+01 -1.00000E+00  1.56058E-01
      21    -1     0     0   511   501  0.000000000E+00  0.000000000E+00  1.075720021E+02  1.075720021E+02  0.000000000E+00  0.00000E+00  9.000E+00
       5    -1     0     0   501     0  0.000000000E+00  0.000000000E+00 -6.679323217E+01  6.679323217E+01  0.000000000E+00  0.00000E+00  9.000E+00
      23     2     1     2     0     0 -2.609902222E+01 -7.539944812E+00  7.997740689E+01  1.266730664E+02  9.440164417E+01  0.00000E+00  9.000E+00
      11     1     3     3     0     0  2.785553302E+01 -2.357414727E+01  5.276190795E+01  6.415208547E+01  5.109968179E-04  0.00000E+00  9.000E+00
     -11     1     3     3     0     0 -5.395455524E+01  1.603420246E+01  2.721549894E+01  6.252098098E+01  5.109954830E-04  0.00000E+00  9.000E+00
       5     1     1     2   511     0  2.609902222E+01  7.539944812E+00 -3.919863699E+01  4.769216781E+01  6.743495762E-07  0.00000E+00  9.000E+00
</event>
<event>
      6  10011  1.00000E+00  5.12789E+01 -1.00000E+00  1.38424E-01
       2    -1     0     0   501     0  0.000000000E+00  0.000000000E+00  7.423227914E+02  7.423227914E+02  0.000000000E+00  0.00000E+00  9.000E+00
      -2    -1     0     0     0   511  0.000000000E+00  0.000000000E+00 -9.097858302E+00  9.097858302E+00  0.000000000E+00  0.00000E+00  9.000E+00
      23     2     1     2     0     0  3.147693359E+01  4.048123918E+01  6.022145769E+02  6.107321943E+02  8.776040309E+01  0.00000E+00  9.000E+00
      11     1     3     3     0     0 -1.102466691E-01  3.021225650E+01  5.340710054E+02  5.349248839E+02  5.109416397E-04  0.00000E+00  9.000E+00
     -11     1     3     3     0     0  3.158718026E+01  1.026898269E+01  6.814357152E+01  7.580731035E+01  5.110021574E-04  0.00000E+00  9.000E+00
      21     1     1     2   501   511 -3.147693359E+01 -4.048123918E+01  1.310103562E+02  1.406884554E+02  1.907348633E-06  0.00000E+00  9.000E+00
</event>
<event>
      6  10011  1.00000E+00  3.12840E+00 -1.00000E+00  2.91318E-01
      -1    -1     0     0     0   501  0.000000000E+00  0.000000000E+00  1.001591993E+03  1.001591993E+03  0.000000000E+00  0.00000E+00  9.000E+00
      21    -1     0     0   501   511  0.000000000E+00  0.000000000E+00 -2.641954806E+00  2.641954806E+00  0.000000000E+00  0.00000E+00  9.000E+00
      23     2     1     2     0     0 -4.647147335E-01 -3.093686799E+00  9.465506592E+02  9.517412648E+02  9.921440265E+01  0.00000E+00  9.000E+00
      11     1     3     3     0     0  4.044147655E+01  1.113283517E+01  2.239818053E+02  2.278756287E+02  5.109701195E-04  0.00000E+00  9.000E+00
     -11     1     3     3     0     0 -4.090619128E+01 -1.422652197E+01  7.225688539E+02  7.238656360E+02  5.109985977E-04  0.00000E+00  9.000E+00
      -1     1     1     2     0   511  4.647147335E-01  3.093686799E+00  5.239937865E+01  5.249268274E+01  1.168007728E-06  0.00000E+00  9.000E+00
</event>
<event>
      6  10011  1.00000E+00  4.44616E+01 -1.00000E+00  1.42018E-01
      21    -1     0     0   511   501  0.000000000E+00  0.000000000E+00  3.024084992E+00  3.024084992E+00  0.000000000E+00  0.00000E+00  9.000E+00
       2    -1     0     0   501     0  0.000000000E+00  0.000000000E+00 -1.736251709E+03  1.736251709E+03  0.000000000E+00  0.00000E+00  9.000E+00
      23     2     1     2     0     0  1.178550402E+01 -4.287116183E+01 -1.233768242E+03  1.237841343E+03  8.994598503E+01  0.00000E+00  9.000E+00
      11     1     3     3     0     0  3.447071863E+01  6.588339507E+00 -7.853458157E+02  7.861295612E+02  5.111124946E-04  0.00000E+00  9.000E+00
     -11     1     3     3     0     0 -2.268521461E+01 -4.945950133E+01 -4.484224265E+02  4.517117818E+02  5.111124946E-04  0.00000E+00  9.000E+00
       2     1     1     2   511     0 -1.178550402E+01  4.287116183E+01 -4.994593822E+02  5.014344514E+02  9.344061824E-06  0.00000E+00  9.000E+00
</event>
<event>
      6  10011  1.00000E+00  6.66323E+00 -1.00000E+00  2.18552E-01
      -4    -1     0     0     0   501  0.000000000E+00  0.000000000E+00  1.496612927E+02  1.496612927E+02  0.000000000E+00  0.00000E+00  9.000E+00
      21    -1     0     0   501   511  0.000000000E+00  0.000000000E+00 -4.082221855E+01  4.082221855E+01  0.000000000E+00  0.00000E+00  9.000E+00
      23     2     1     2     0     0 -5.348583817E-01  6.641728549E+00  1.355610611E+02  1.629433004E+02  9.016273738E+01  0.00000E+00  9.000E+00
      11     1     3     3     0     0 -2.223273579E+00 -3.846451190E+01  3.240590059E+01  5.034485092E+01  5.109974853E-04  0.00000E+00  9.000E+00
     -11     1     3     3     0     0  1.688415197E+00  4.510624045E+01  1.031551605E+02  1.125984494E+02  5.109896984E-04  0.00000E+00  9.000E+00
      -4     1     1     2     0   511  5.348583817E-01 -6.641728549E+00 -2.672198694E+01  2.754021092E+01  4.768371582E-07  0.00000E+00  9.000E+00
</event>
<event>
      6  10011  1.00000E+00  1.28167E+01 -1.00000E+00  1.84019E-01
      -4    -1     0     0     0   501  0.000000000E+00  0.000000000E+00  1.551173285E+01  1.551173285E+01  0.000000000E+00  0.00000E+00  9.000E+00
       4    -1     0     0   511     0  0.000000000E+00  0.000000000E+00 -1.486941927E+02  1.486941927E+02  0.000000000E+00  0.00000E+00  9.000E+00
      23     2     1     2     0     0  3.433502468E+00  1.234828081E+01 -1.076412262E+02  1.356292988E+02  8.151321455E+01  0.00000E+00  9.000E+00
      11     1     3     3     0     0  3.614320811E+01  2.280619728E+01 -3.485322210E+01  5.514708712E+01  5.109994876E-04  0.00000E+00  9.000E+00
     -11     1     3     3     0     0 -3.270970565E+01 -1.045791648E+01 -7.278800410E+01  8.048221171E+01  5.110030473E-04  0.00000E+00  9.000E+00
      21     1     1     2   511   501 -3.433502468E+00 -1.234828081E+01 -2.554123360E+01  2.857662667E+01  3.371747881E-07  0.00000E+00  9.000E+00
</event>
<event>
      6  10011  1.00000E+00  7.29577E+00 -1.00000E+00  2.12975E-01
       1    -1     0     0   501     0  0.000000000E+00  0.000000000E+00  2.213835382E+03  2.213835382E+03  0.000000000E+00  0.00000E+00  9.000E+00
      21    -1     0     0   511   501  0.000000000E+00  0.000000000E+00 -1.864427310E+00  1.864427310E+00  0.000000000E+00  0.00000E+00  9.000E+00
      23     2     1     2     0     0 -1.983334753E+00 -7.021009579E+00  2.195312356E+03  2.197513630E+03  9.806419934E+01  0.00000E+00  9.000E+00
      11     1     3     3     0     0 -1.809967961E+01 -2.361003562E+00  7.696470392E+01  7.909954734E+01  5.110235148E-04  0.00000E+00  9.000E+00
     -11     1     3     3     0     0  1.611634486E+01 -4.660006017E+00  2.118347652E+03  2.118414083E+03  5.115678288E-04  0.00000E+00  9.000E+00
       1     1     1     2   511     0  1.983334753E+00  7.021009579E+00  1.665859842E+01  1.818617865E+01  1.238859277E-06  0.00000E+00  9.000E+00
</event>
<event>
      6  10011  1.00000E+00  8.04643E+00 -1.00000E+00  2.07277E-01
       5    -1     0     0   501     0  0.000000000E+00  0.000000000E+00  8.853215419E+01  8.853215419E+01  0.000000000E+00  0.00000E+00  9.000E+00
      21    -1     0     0   511   501  0.000000000E+00  0.000000000E+00 -3.753099466E+01  3.753099466E+01  0.000000000E+00  0.00000E+00  9.000E+00
      23     2     1     2     0     0 -2.877678982E+00  7.514255868E+00  6.493687174E+01  1.099712518E+02  8.838627622E+01  0.00000E+00  9.000E+00
      11     1     3     3     0     0  2.995769578E+00 -1.388571659E+01 -1.867553110E+01  2.346408368E+01  5.109989870E-04  0.00000E+00  9.000E+00
     -11     1     3     3     0     0 -5.873448560E+00  2.139997246E+01  8.361240284E+01  8.650716807E+01  5.109985977E-04  0.00000E+00  9.000E+00
       5     1     1     2   511     0  2.877678982E+00 -7.514255868E+00 -1.393571221E+01  1.609189710E+01  1.685873940E-07  0.00000E+00  9.000E+00
</event>
<event>
      6  10011  1.00000E+00  1.41452E+01 -1.00000E+00  1.79769E-01
       2    -1     0     0   511     0  0.000000000E+00  0.000000000E+00  7.988387949E+02  7.988387949E+02  0.000000000E+00  0.00000E+00  9.000E+00
      -2    -1     0     0     0   501  0.000000000E+00  0.000000000E+00 -1.168723826E+01  1.168723826E+01  0.000000000E+00  0.00000E+00  9.000E+00
      23     2     1     2     0     0 -5.744713484E+00  1.292616457E+01  1.953581200E+02  2.185635689E+02  9.698015844E+01  0.00000E+00  9.000E+00
      11     1     3     3     0     0  6.124241096E+00  1.898147111E+01  2.024768216E+02  2.034567912E+02  5.110199553E-04  0.00000E+00  9.000E+00
     -11     1     3     3     0     0 -1.186895458E+01 -6.055306537E+00 -7.118701628E+00  1.510677772E+01  5.109996684E-04  0.00000E+00  9.000E+00
      21     1     1     2   511   501  5.744713484E+00 -1.292616457E+01  5.917934366E+02  5.919624643E+02  1.078959322E-05  0.00000E+00  9.000E+00
</event>
<event>
      6  10011  1.00000E+00  1.32601E+01 -1.00000E+00  1.82530E-01
      21    -1     0     0   501   511  0.000000000E+00  0.000000000E+00  1.040835438E+01  1.040835438E+01  0.000000000E+00  0.00000E+00  9.000E+00
      -2    -1     0     0     0   501  0.000000000E+00  0.000000000E+00 -3.229628981E+02  3.229628981E+02  0.000000000E+00  0.00000E+00  9.000E+00
      23     2     1     2     0     0 -7.537784877E+00 -1.090929703E+01 -3.042764598E+02  3.177393096E+02  9.054432050E+01  0.00000E+00  9.000E+00
      11     1     3     3     0     0  8.922732630E+00 -1.733056476E+00 -2.976110483E+02  2.977498190E+02  5.110128362E-04  0.00000E+00  9.000E+00
     -11     1     3     3     0     0 -1.646051751E+01 -9.176240552E+00 -6.665411484E+00  1.998949068E+01  5.110009894E-04  0.00000E+00  9.000E+00
      -2     1     1     2     0   511  7.537784877E+00  1.090929703E+01 -8.278083953E+00  1.563194282E+01  4.129530925E-07  0.00000E+00  9.000E+00
</event>
<event>
      6  10011  1.00000E+00  1.04750E+01 -1.00000E+00  1.93399E-01
       2    -1     0     0   501     0  0.000000000E+00  0.000000000E+00  7.560533052E+02  7.560533052E+02  0.000000000E+00  0.00000E+00  9.000E+00
      21    -1     0     0   511   501  0.000000000E+00  0.000000000E+00 -6.359958395E+00  6.359958395E+00  0.000000000E+00  0.00000E+00  9.000E+00
      23     2     1     2     0     0 -6.487085693E+00 -8.224607301E+00  7.456049011E+02  7.511686278E+02  9.065270208E+01  0.00000E+00  9.000E+00
      11     1     3     3     0     0  2.515536228E+00  1.771423413E+00 -1.851744669E+00  3.590936090E+00  5.109979355E-04  0.00000E+00  9.000E+00
     -11     1     3     3     0     0 -9.002621921E+00 -9.996030714E+00  7.474566458E+02  7.475776917E+02  5.111124946E-04  0.00000E+00  9.000E+00
       2     1     1     2   511     0  6.487085693E+00  8.224607301E+00  4.088445710E+00  1.124463580E+01  7.562981570E-07  0.00000E+00  9.000E+00
</event>
<event>
      6  10011  1.00000E+00  5.19237E+00 -1.00000E+00  2.35601E-01
       2    -1     0     0   501     0  0.000000000E+00  0.000000000E+00  1.027659340E+03  1.027659340E+03  0.000000000E+00  0.00000E+00  9.000E+00
      21    -1     0     0   511   501  0.000000000E+00  0.000000000E+00 -2.935463573E+00  2.935463573E+00  0.000000000E+00  0.00000E+00  9.000E+00
      23     2     1     2     0     0 -1.347133164E+00  5.014574787E+00  1.017740606E+03  1.021892689E+03  9.187908599E+01  0.00000E+00  9.000E+00
      11     1     3     3     0     0  3.817304890E+01 -1.352666185E+01  2.862524864E+02  2.891031619E+02  5.110128362E-04  0.00000E+00  9.000E+00
     -11     1     3     3     0     0 -3.952018206E+01  1.854123664E+01  7.314881192E+02  7.327895270E+02  5.106567545E-04  0.00000E+00  9.000E+00
       2     1     1     2   511     0  1.347133164E+00 -5.014574787E+00  6.983270327E+00  8.702114256E+00  4.842304232E-07  0.00000E+00  9.000E+00
</event>
<event>
      6  10011  1.00000E+00  5.63210E+00 -1.00000E+00  2.29744E-01
      -2    -1     0     0     0   501  0.000000000E+00  0.000000000E+00  7.091133267E+02  7.091133267E+02  0.000000000E+00  0.00000E+00  9.000E+00
       2    -1     0     0   511     0  0.000000000E+00  0.000000000E+00 -3.905582364E+00  3.905582364E+00  0.000000000E+00  0.00000E+00  9.000E+00
      23     2     1     2     0     0  3.707633515E+00  4.239577595E+00  6.998413431E+02  7.052395243E+02  8.690892151E+01  0.00000E+00  9.000E+00
      11     1     3     3     0     0  1.016304806E+01  1.970469690E+01  4.482106657E+01  5.000490610E+01  5.109930357E-04  0.00000E+00  9.000E+00
     -11     1     3     3     0     0 -6.455414542E+00 -1.546511930E+01  6.550202765E+02  6.552346182E+02  5.109416397E-04  0.00000E+00  9.000E+00
      21     1     1     2   511   501 -3.707633515E+00 -4.239577595E+00  5.366401293E+00  7.779384764E+00  2.384185791E-07  0.00000E+00  9.000E+00
</event>
<event>
      6  10011  1.00000E+00  3.80270E+00 -1.00000E+00  2.68643E-01
      21    -1     0     0   501   511  0.000000000E+00  0.000000000E+00  6.806169945E+01  6.806169945E+01  0.000000000E+00  0.00000E+00  9.000E+00
      -3    -1     0     0     0   501  0.000000000E+00  0.000000000E+00 -4.078893465E+01  4.078893465E+01  0.000000000E+00  0.00000E+00  9.000E+00
      23     2     1     2     0     0 -2.070696402E+00  3.189479107E+00  1.125677699E+01  9.238939400E+01  9.162218363E+01  0.00000E+00  9.000E+00
      11     1     3     3     0     0 -4.181943376E+01 -1.483304397E+01 -7.292476653E+00  4.496737094E+01  5.109992095E-04  0.00000E+00  9.000E+00
     -11     1     3     3     0     0  3.974873736E+01  1.802252308E+01  1.854925365E+01  4.742202306E+01  5.109982640E-04  0.00000E+00  9.000E+00
      -3     1     1     2     0   511  2.070696402E+00 -3.189479107E+00  1.601598780E+01  1.646124011E+01  2.384185791E-07  0.00000E+00  9.000E+00
</event>
<event>
      6  10011  1.00000E+00  1.28030E+01 -1.00000E+00  1.84067E-01
       1    -1     0     0   501     0  0.000000000E+00  0.000000000E+00  3.660806010E+02  3.660806010E+02  0.000000000E+00  0.00000E+00  9.000E+00
      21    -1     0     0   511   501  0.000000000E+00  0.000000000E+00 -5.472922248E+01  5.472922248E+01  0.000000000E+00  0.00000E+00  9.000E+00
      23     2     1     2     0     0  1.096360801E+01 -6.611748816E+00  3.595728190E+02  3.709177074E+02  9.013000369E+01  0.00000E+00  9.000E+00
      11     1     3     3     0     0 -1.663184737E+01 -7.358566693E+00  1.100278540E+01  2.125624937E+01  5.109982501E-04  0.00000E+00  9.000E+00
     -11     1     3     3     0     0  2.759545537E+01  7.468178768E-01  3.485700336E+02  3.496614580E+02  5.109985977E-04  0.00000E+00  9.000E+00
       1     1     1     2   511     0 -1.096360801E+01  6.611748816E+00 -4.822144050E+01  4.989211608E+01  6.743495762E-07  0.00000E+00  9.000E+00
</event>
<event>
      6  10011  1.00000E+00  4.42567E+00 -1.00000E+00  2.53434E-01
       3    -1     0     0   511     0  0.000000000E+00  0.000000000E+00  5.716009648E+00  5.716009648E+00  0.000000000E+00  0.00000E+00  9.000E+00
      -3    -1     0     0     0   501  0.000000000E+00  0.000000000E+00 -3.916568035E+02  3.916568035E+02  0.000000000E+00  0.00000E+00  9.000E+00
      23     2     1     2     0     0 -7.655420267E-01  4.358953215E+00 -3.704127012E+02  3.812263526E+02  9.004652219E+01  0.00000E+00  9.000E+00
      11     1     3     3     0     0  1.886425172E+01  1.922728669E+01 -3.161032688E+01  4.153024575E+01  5.109937031E-04  0.00000E+00  9.000E+00
     -11     1     3     3     0     0 -1.962979375E+01 -1.486833348E+01 -3.388023744E+02  3.396961069E+02  5.110270743E-04  0.00000E+00  9.000E+00
      21     1     1     2   511   501  7.655420267E-01 -4.358953215E+00 -1.552809265E+01  1.614646058E+01  3.371747881E-07  0.00000E+00  9.000E+00
</event>
<event>
      6  10011  1.00000E+00  6.02611E+00 -1.00000E+00  2.25101E-01
      21    -1     0     0   511   501  0.000000000E+00  0.000000000E+00  3.402732937E+00  3.402732937E+00  0.000000000E+00  0.00000E+00  9.000E+00
       1    -1     0     0   501     0  0.000000000E+00  0.000000000E+00 -1.077344355E+03  1.077344355E+03  0.000000000E+00  0.00000E+00  9.000E+00
      23     2     1     2     0     0  5.905544009E+00  1.199381597E+00 -1.063777831E+03  1.068931141E+03  1.046622914E+02  0.00000E+00  9.000E+00
      11     1     3     3     0     0  3.898866688E+01  1.057740307E+01 -9.275861771E+02  9.284654617E+02  5.111124946E-04  0.00000E+00  9.000E+00
     -11     1     3     3     0     0 -3.308312287E+01 -9.378021476E+00 -1.361916540E+02  1.404656788E+02  5.109416397E-04  0.00000E+00  9.000E+00
       1     1     1     2   511     0 -5.905544009E+00 -1.199381597E+00 -1.016379076E+01  1.181594723E+01  2.665600750E-07  0.00000E+00  9.000E+00
</event>
<event>
      6  10011  1.00000E+00  9.43340E+01 -1.00000E+00  1.24955E-01
       3    -1     0     0   501     0  0.000000000E+00  0.000000000E+00  9.122395846E+01  9.122395846E+01  0.000000000E+00  0.00000E+00  9.000E+00
      21    -1     0     0   511   501  0.000000000E+00  0.000000000E+00 -2.731442989E+02  2.731442989E+02  0.000000000E+00  0.00000E+00  9.000E+00
      23     2     1     2     0     0 -9.033880491E+01  2.716250924E+01  2.756254642E+01  1.346249626E+02  9.200698353E+01  0.00000E+00  9.000E+00
      11     1     3     3     0     0 -1.033388753E+02  4.202584284E+01  1.927772508E+01  1.132109770E+02  5.110009337E-04  0.00000E+00  9.000E+00
     -11     1     3     3     0     0  1.300007043E+01 -1.486333361E+01  8.284821347E+00  2.141398566E+01  5.109990983E-04  0.00000E+00  9.000E+00
       3     1     1     2   511     0  9.033880491E+01 -2.716250924E+01 -2.094828869E+02  2.297432947E+02  2.697398305E-06  0.00000E+00  9.000E+00
</event>
<event>
      6  10011  1.00000E+00  8.05320E+00 -1.00000E+00  2.07229E-01
      -3    -1     0     0     0   501  0.000000000E+00  0.000000000E+00  6.238387640E+01  6.238387640E+01  0.000000000E+00  0.00000E+00  9.000E+00
      21    -1     0     0   501   511  0.000000000E+00  0.000000000E+00 -4.885768156E+01  4.885768156E+01  0.000000000E+00  0.00000E+00  9.000E+00
      23     2     1     2     0     0 -8.022908342E+00 -6.978097103E-01  2.613484854E+01  9.628053711E+01  9.231499077E+01  0.00000E+00  9.000E+00
      11     1     3     3     0     0  6.932727720E+00 -2.763980419E+01 -2.411803207E+01  3.733230452E+01  5.110001551E-04  0.00000E+00  9.000E+00
     -11     1     3     3     0     0 -1.495563606E+01  2.694199448E+01  5.025288061E+01  5.894823260E+01  5.109994876E-04  0.00000E+00  9.000E+00
      -3     1     1     2     0   511  8.022908342E+00  6.978097103E-01 -1.260865371E+01  1.496102085E+01  1.685873940E-07  0.00000E+00  9.000E+00
</event>
<event>
      6  10011  1.00000E+00  5.16972E+00 -1.00000E+00  2.35924E-01
      21    -1     0     0   511   501  0.000000000E+00  0.000000000E+00  1.556139351E+00  1.556139351E+00  0.000000000E+00  0.00000E+00  9.000E+00
       2    -1     0     0   501     0  0.000000000E+00  0.000000000E+00 -1.414902622E+03  1.414902622E+03  0.000000000E+00  0.00000E+00  9.000E+00
      23     2     1     2     0     0 -4.920875827E+00 -1.584593280E+00 -1.397028436E+03  1.399341384E+03  8.025666675E+01  0.00000E+00  9.000E+00
      11     1     3     3     0     0 -2.789294608E+01 -2.787818584E+01 -1.001091453E+03  1.001867909E+03  5.114540333E-04  0.00000E+00  9.000E+00
     -11     1     3     3     0     0  2.297207025E+01  2.629359256E+01 -3.959369824E+02  3.974734747E+02  5.109131583E-04  0.00000E+00  9.000E+00
       2     1     1     2   511     0  4.920875827E+00  1.584593280E+00 -1.631804685E+01  1.711737736E+01  1.143415337E-06  0.00000E+00  9.000E+00
</event>
<event>
      6  10011  1.00000E+00  2.65775E+00 -1.00000E+00  3.13644E-01
      -2    -1     0     0     0   501  0.000000000E+00  0.000000000E+00  6.250735445E+00  6.250735445E+00  0.000000000E+00  0.00000E+00  9.000E+00
       2    -1     0     0   511     0  0.000000000E+00  0.000000000E+00 -2.573163547E+02  2.573163547E+02  0.000000000E+00  0.00000E+00  9.000E+00
      23     2     1     2     0     0  1.831565896E+00  1.925879224E+00 -2.273793261E+02  2.397321551E+02  7.591498281E+01  0.00000E+00  9.000E+00
      11     1     3     3     0     0  1.465437990E+01  3.254983417E+01 -6.662515387E+01  7.558540655E+01  5.110003775E-04  0.00000E+00  9.000E+00
     -11     1     3     3     0     0 -1.282281400E+01 -3.062395495E+01 -1.607541722E+02  1.641467486E+02  5.109843588E-04  0.00000E+00  9.000E+00
      21     1     1     2   511   501 -1.831565896E+00 -1.925879224E+00 -2.368629316E+01  2.383493504E+01  3.371747881E-07  0.00000E+00  9.000E+00
</event>
<event>
      6  10011  1.00000E+00  1.60225E+01 -1.00000E+00  1.74681E-01
       1    -1     0     0   501     0  0.000000000E+00  0.000000000E+00  1.997975225E+03  1.997975225E+03  0.000000000E+00  0.00000E+00  9.000E+00
      21    -1     0     0   511   501  0.000000000E+00  0.000000000E+00 -2.698574318E+00  2.698574318E+00  0.000000000E+00  0.00000E+00  9.000E+00
      23     2     1     2     0     0 -1.199820328E+01 -1.061899322E+01  1.956985683E+03  1.959165751E+03  9.099865468E+01  0.00000E+00  9.000E+00
      11     1     3     3     0     0 -2.023834481E+01  3.798364991E+01  8.760958184E+02  8.771523422E+02  5.112263662E-04  0.00000E+00  9.000E+00
     -11     1     3     3     0     0  8.240141533E+00 -4.860264313E+01  1.080889865E+03  1.082013409E+03  5.111124946E-04  0.00000E+00  9.000E+00
       1     1     1     2   511     0  1.199820328E+01  1.061899322E+01  3.829096775E+01  4.150804874E+01  2.821006671E-06  0.00000E+00  9.000E+00
</event>
<event>
      6  10011  1.00000E+00  5.19167E+01 -1.00000E+00  1.38121E-01
      21    -1     0     0   511   501  0.000000000E+00  0.000000000E+00  8.766975128E+01  8.766975128E+01  0.000000000E+00  0.00000E+00  9.000E+00
       1    -1     0     0   501     0  0.000000000E+00  0.000000000E+00 -8.723182456E+01  8.723182456E+01  0.000000000E+00  0.00000E+00  9.000E+00
      23     2     1     2     0     0 -1.131291736E+01 -5.066912132E+01  3.734545262E+01  1.112030090E+02  9.097298728E+01  0.00000E+00  9.000E+00
      11     1     3     3     0     0 -1.372527199E+01 -4.091435791E+01  6.711001458E+01  7.978798049E+01  5.109994876E-04  0.00000E+00  9.000E+00
     -11     1     3     3     0     0  2.412354630E+00 -9.754763415E+00 -2.976456196E+01  3.141502846E+01  5.109989314E-04  0.00000E+00  9.000E+00
       1     1     1     2   511     0  1.131291736E+01  5.066912132E+01 -3.690752590E+01  6.369856688E+01  1.066240300E-06  0.00000E+00  9.000E+00
</event>
<event>
      6  10011  1.00000E+00  2.16831E+01 -1.00000E+00  1.63485E-01
       5    -1     0     0   501     0  0.000000000E+00  0.000000000E+00  2.369637449E+01  2.369637449E+01  0.000000000E+00  0.00000E+00  9.000E+00
      21    -1     0     0   511   501  0.000000000E+00  0.000000000E+00 -4.963835234E+02  4.963835234E+02  0.000000000E+00  0.00000E+00  9.000E+00
      23     2     1     2     0     0  1.981410131E+01  8.806687194E+00 -7.142326905E+01  1.182306007E+02  9.168988624E+01  0.00000E+00  9.000E+00
      11     1     3     3     0     0  1.452569321E+01 -3.424551203E+00  2.049420074E+01  2.535223025E+01  5.109994876E-04  0.00000E+00  9.000E+00
     -11     1     3     3     0     0  5.288408099E+00  1.223123840E+01 -9.191746979E+01  9.287837049E+01  5.110003775E-04  0.00000E+00  9.000E+00
       5     1     1     2   511     0 -1.981410131E+01 -8.806687194E+00 -4.012638798E+02  4.018492971E+02  7.629394531E-06  0.00000E+00  9.000E+00
</event>
<event>
      6  10011  1.00000E+00  4.43014E+00 -1.00000E+00  2.53339E-01
       2    -1     0     0   501     0  0.000000000E+00  0.000000000E+00  2.069914555E+01  2.069914555E+01  0.000000000E+00  0.00000E+00  9.000E+00
      -2    -1     0     0     0   511  0.000000000E+00  0.000000000E+00 -1.133309372E+02  1.133309372E+02  0.000000000E+00  0.00000E+00  9.000E+00
      23     2     1     2     0     0 -4.350746022E+00 -8.349563651E-01 -8.641187684E+01  1.263937562E+02  9.213437471E+01  0.00000E+00  9.000E+00
      11     1     3     3     0     0  1.591620085E+01 -4.004759747E+01 -2.220795622E+01  4.848019010E+01  5.110012118E-04  0.00000E+00  9.000E+00
     -11     1     3     3     0     0 -2.026694687E+01  3.921264110E+01 -6.420392062E+01  7.791356609E+01  5.110021574E-04  0.00000E+00  9.000E+00
      21     1     1     2   501   511  4.350746022E+00  8.349563651E-01 -6.219914799E+00  7.636326551E+00  1.192092896E-07  0.00000E+00  9.000E+00
</event>
<event>
      6  10011  1.00000E+00  1.99666E+01 -1.00000E+00  1.66387E-01
      -3    -1     0     0     0   501  0.000000000E+00  0.000000000E+00  6.659488701E+01  6.659488701E+01  0.000000000E+00  0.00000E+00  9.000E+00
      21    -1     0     0   501   511  0.000000000E+00  0.000000000E+00 -6.740064294E+01  6.740064294E+01  0.000000000E+00  0.00000E+00  9.000E+00
      23     2     1     2     0     0 -1.817111592E+01 -8.274955995E+00  2.913063898E+01  9.801147667E+01  9.142751818E+01  0.00000E+00  9.000E+00
      11     1     3     3     0     0  3.303674725E+01  1.605888368E+01  8.719462235E+00  3.775372082E+01  5.109996823E-04  0.00000E+00  9.000E+00
     -11     1     3     3     0     0 -5.120786317E+01 -2.433383968E+01  2.041117675E+01  6.025775585E+01  5.109984865E-04  0.00000E+00  9.000E+00
      -3     1     1     2     0   511  1.817111592E+01  8.274955995E+00 -2.993639490E+01  3.598405328E+01  4.768371582E-07  0.00000E+00  9.000E+00
</event>
<event>
      6  10011  1.00000E+00  1.15281E+01 -1.00000E+00  1.88825E-01
       2    -1     0     0   511     0  0.000000000E+00  0.000000000E+00  9.519865470E+01  9.519865470E+01  0.000000000E+00  0.00000E+00  9.000E+00
      -2    -1     0     0     0   501  0.000000000E+00  0.000000000E+00 -4.943904075E+01  4.943904075E+01  0.000000000E+00  0.00000E+00  9.000E+00
      23     2     1     2     0     0  3.595989479E+00 -1.095290096E+01 -5.660765048E+00  9.194089711E+01  9.103948111E+01  0.00000E+00  9.000E+00
      11     1     3     3     0     0 -2.547661690E+01 -3.571167774E+01 -2.353030333E+01  4.978008749E+01  5.109987089E-04  0.00000E+00  9.000E+00
     -11     1     3     3     0     0  2.907260637E+01  2.475877679E+01  1.786953828E+01  4.216080962E+01  5.109974297E-04  0.00000E+00  9.000E+00
      21     1     1     2   511   501 -3.595989479E+00  1.095290096E+01  5.142037900E+01  5.269679834E+01  9.536743164E-07  0.00000E+00  9.000E+00
</event>
<event>
      6  10011  1.00000E+00  7.28639E+00 -1.00000E+00  2.13052E-01
      21    -1     0     0   501   511  0.000000000E+00  0.000000000E+00  1.433758992E+01  1.433758992E+01  0.000000000E+00  0.00000E+00  9.000E+00
      -3    -1     0     0     0   501  0.000000000E+00  0.000000000E+00 -3.808970753E+02  3.808970753E+02  0.000000000E+00  0.00000E+00  9.000E+00
      23     2     1     2     0     0  6.717224573E+00  2.823195021E+00 -3.738596283E+02  3.849204215E+02  9.132150739E+01  0.00000E+00  9.000E+00
      11     1     3     3     0     0 -9.703906215E+00 -3.299771418E+01 -2.925536877E+02  2.945686255E+02  5.110128362E-04  0.00000E+00  9.000E+00
     -11     1     3     3     0     0  1.642113079E+01  3.582090920E+01 -8.130594060E+01  9.035179605E+01  5.109950380E-04  0.00000E+00  9.000E+00
      -3     1     1     2     0   511 -6.717224573E+00 -2.823195021E+00  7.300142920E+00  1.031424368E+01  5.331201500E-07  0.00000E+00  9.000E+00
</event>
<event>
      6  10011  1.00000E+00  2.91080E+01 -1.00000E+00  1.53920E-01
       2    -1     0     0   501     0  0.000000000E+00  0.000000000E+00  1.185514299E+02  1.185514299E+02  0.000000000E+00  0.00000E+00  9.000E+00
      -2    -1     0     0     0   511  0.000000000E+00  0.000000000E+00 -6.474094107E+01  6.474094107E+01  0.000000000E+00  0.00000E+00  9.000E+00
      23     2     1     2     0     0  2.002858523E+01 -2.112187507E+01  9.275302682E+01  1.346734539E+02  9.320159534E+01  0.00000E+00  9.000E+00
      11     1     3     3     0     0  4.017805627E+01 -3.957258541E+01  2.512949677E+01  6.173943091E+01  5.109987089E-04  0.00000E+00  9.000E+00
     -11     1     3     3     0     0 -2.014947104E+01  1.845071033E+01  6.762353005E+01  7.293402301E+01  5.109985977E-04  0.00000E+00  9.000E+00
      21     1     1     2   501   511 -2.002858523E+01  2.112187507E+01 -3.894253797E+01  4.861891706E+01  0.000000000E+00  0.00000E+00  9.000E+00
</event>
<event>
      6  10011  1.00000E+00  3.80139E+00 -1.00000E+00  2.68680E-01
       3    -1     0     0   501     0  0.000000000E+00  0.000000000E+00  1.046637845E+01  1.046637845E+01  0.000000000E+00  0.00000E+00  9.000E+00
      21    -1     0     0   511   501  0.000000000E+00  0.000000000E+00 -3.810184284E+02  3.810184284E+02  0.000000000E+00  0.00000E+00  9.000E+00
      23     2     1     2     0     0 -1.262492098E+00  3.585617634E+00 -1.909756010E+02  2.118681273E+02  9.166227503E+01  0.00000E+00  9.000E+00
      11     1     3     3     0     0  4.473716670E+01  2.319919825E-01 -7.941249510E+01  9.114720117E+01  5.109950380E-04  0.00000E+00  9.000E+00
     -11     1     3     3     0     0 -4.599965879E+01  3.353625651E+00 -1.115631059E+02  1.207209261E+02  5.110021574E-04  0.00000E+00  9.000E+00
       3     1     1     2   511     0  1.262492098E+00 -3.585617634E+00 -1.795764490E+02  1.796166795E+02  2.697398305E-06  0.00000E+00  9.000E+00
</event>
<event>
      6  10011  1.00000E+00  3.04269E+01 -1.00000E+00  1.52580E-01
      21    -1     0     0   501   511  0.000000000E+00  0.000000000E+00  1.998784874E+02  1.998784874E+02  0.000000000E+00  0.00000E+00  9.000E+00
      -1    -1     0     0     0   501  0.000000000E+00  0.000000000E+00 -2.637460116E+01  2.637460116E+01  0.000000000E+00  0.00000E+00  9.000E+00
      23     2     1     2     0     0 -7.908793612E+00 -2.938105368E+01  7.639227010E+01  1.244863881E+02  9.346275494E+01  0.00000E+00  9.000E+00
      11     1     3     3     0     0  3.157539655E+01  6.312303821E+00  6.116800292E+01  6.912579423E+01  5.109972628E-04  0.00000E+00  9.000E+00
     -11     1     3     3     0     0 -3.948419016E+01 -3.569335750E+01  1.522426718E+01  5.536059387E+01  5.109986533E-04  0.00000E+00  9.000E+00
      -1     1     1     2     0   511  7.908793612E+00  2.938105368E+01  9.711161615E+01  1.017667005E+02  1.348699152E-06  0.00000E+00  9.000E+00
</event>
<event>
      6  10011  1.00000E+00  2.77762E+01 -1.00000E+00  1.55364E-01
      21    -1     0     0   511   501  0.000000000E+00  0.000000000E+00  3.070453786E+01  3.070453786E+01  0.000000000E+00  0.00000E+00  9.000E+00
       5    -1     0     0   501     0  0.000000000E+00  0.000000000E+00 -1.633744318E+02  1.633744318E+02  0.000000000E+00  0.00000E+00  9.000E+00
      23     2     1     2     0     0  1.225287650E+01 -2.492755878E+01 -1.340418781E+02  1.662689263E+02  9.437486206E+01  0.00000E+00  9.000E+00
      11     1     3     3     0     0  4.625285157E-01  3.490508023E+01 -3.179862024E+01  4.722002550E+01  5.110003775E-04  0.00000E+00  9.000E+00
     -11     1     3     3     0     0  1.179034799E+01 -5.983263901E+01 -1.022432579E+02  1.190489008E+02  5.110057170E-04  0.00000E+00  9.000E+00
       5     1     1     2   511     0 -1.225287650E+01  2.492755878E+01  1.371984222E+00  2.781004333E+01  6.683963982E-07  0.00000E+00  9.000E+00
</event>
<event>
      6  10011  1.00000E+00  1.42763E+01 -1.00000E+00  1.79382E-01
       2    -1     0     0   511     0  0.000000000E+00  0.000000000E+00  1.009618203E+03  1.009618203E+03  0.000000000E+00  0.00000E+00  9.000E+00
      -2    -1     0     0     0   501  0.000000000E+00  0.000000000E+00 -3.046449084E+00  3.046449084E+00  0.000000000E+00  0.00000E+00  9.000E+00
      23     2     1     2     0     0 -3.286203389E+00  1.389292177E+01  7.462251581E+02  7.519269250E+02  9.131430033E+01  0.00000E+00  9.000E+00
      11     1     3     3     0     0 -2.363012934E-01  1.807456404E+01  7.465237883E+02  7.467426010E+02  5.111124946E-04  0.00000E+00  9.000E+00
     -11     1     3     3     0     0 -3.049902095E+00 -4.181642271E+00 -2.986301183E-01  5.184323976E+00  5.109996586E-04  0.00000E+00  9.000E+00
      21     1     1     2   511   501  3.286203389E+00 -1.389292177E+01  2.603465956E+02  2.607377270E+02  3.814697266E-06  0.00000E+00  9.000E+00
</event>
<event>
      6  10011  1.00000E+00  2.58475E+00 -1.00000E+00  3.17829E-01
       1    -1     0     0   501     0  0.000000000E+00  0.000000000E+00  8.521640329E+02  8.521640329E+02  0.000000000E+00  0.00000E+00  9.000E+00
      -1    -1     0     0     0   511  0.000000000E+00  0.000000000E+00 -3.341920599E+00  3.341920599E+00  0.000000000E+00  0.00000E+00  9.000E+00
      23     2     1     2     0     0 -2.583779899E+00  7.096195876E-02  8.478685074E+02  8.527509006E+02  9.108464039E+01  0.00000E+00  9.000E+00
      11     1     3     3     0     0  3.893700456E+01 -1.263625207E+01  2.520869093E+02  2.553890660E+02  5.110057170E-04  0.00000E+00  9.000E+00
     -11     1     3     3     0     0 -4.152078445E+01  1.270721403E+01  5.957815981E+02  5.973618346E+02  5.110555493E-04  0.00000E+00  9.000E+00
      21     1     1     2   501   511  2.583779899E+00 -7.096195876E-02  9.536049342E-01  2.755052910E+00  1.803594595E-07  0.00000E+00  9.000E+00
</event>
<event>
      6  10011  1.00000E+00  5.39672E+01 -1.00000E+00  1.37182E-01
      21    -1     0     0   511   501  0.000000000E+00  0.000000000E+00  2.277171718E+03  2.277171718E+03  0.000000000E+00  0.00000E+00  9.000E+00
       1    -1     0     0   501     0  0.000000000E+00  0.000000000E+00 -8.672706800E+00  8.672706800E+00  0.000000000E+00  0.00000E+00  9.000E+00
      23     2     1     2     0     0  5.282564099E+01 -1.104112735E+01  3.304784598E+02  3.470726196E+02  9.127396163E+01  0.00000E+00  9.000E+00
      11     1     3     3     0     0  5.215510483E+01 -4.508480020E+01  2.570333722E+02  2.661182981E+02  5.109558798E-04  0.00000E+00  9.000E+00
     -11     1     3     3     0     0  6.705361568E-01  3.404367284E+01  7.344508756E+01  8.095432148E+01  5.109941481E-04  0.00000E+00  9.000E+00
       1     1     1     2   511     0 -5.282564099E+01  1.104112735E+01  1.938020552E+03  1.938771806E+03  0.000000000E+00  0.00000E+00  9.000E+00
</event>
<event>
      6  10011  1.00000E+00  5.48380E+00 -1.00000E+00  2.31633E-01
       2    -1     0     0   501     0  0.000000000E+00  0.000000000E+00  3.452333810E+00  3.452333810E+00  0.000000000E+00  0.00000E+00  9.000E+00
      -2    -1     0     0     0   511  0.000000000E+00  0.000000000E+00 -8.950691091E+02  8.950691091E+02  0.000000000E+00  0.00000E+00  9.000E+00
      23     2     1     2     0     0  2.569258471E+00  4.844682220E+00 -6.193188262E+02  6.261682805E+02  9.219997231E+01  0.00000E+00  9.000E+00
      11     1     3     3     0     0  2.346393844E+01 -1.874257017E+01 -7.292153245E+01  7.886311076E+01  5.110092766E-04  0.00000E+00  9.000E+00
     -11     1     3     3     0     0 -2.089467997E+01  2.358725239E+01 -5.463972938E+02  5.473051697E+02  5.107707276E-04  0.00000E+00  9.000E+00
      21     1     1     2   501   511 -2.569258471E+00 -4.844682220E+00 -2.722979491E+02  2.723531625E+02  3.814697266E-06  0.00000E+00  9.000E+00
</event>
<event>
      6  10011  1.00000E+00  1.17955E+02 -1.00000E+00  1.20664E-01
       2    -1     0     0   501     0  0.000000000E+00  0.000000000E+00  2.785576379E+03  2.785576379E+03  0.000000000E+00  0.00000E+00  9.000E+00
      21    -1     0     0   511   501  0.000000000E+00  0.000000000E+00 -7.981418433E+00  7.981418433E+00  0.000000000E+00  0.00000E+00  9.000E+00
      23     2     1     2     0     0  1.160047200E+02 -2.136047848E+01  2.135716908E+03  2.140931718E+03  9.158900124E+01  0.00000E+00  9.000E+00
      11     1     3     3     0     0  4.734485755E+01 -5.015646340E+01  1.328223445E+03  1.330013055E+03  5.102006072E-04  0.00000E+00  9.000E+00
     -11     1     3     3     0     0  6.865986248E+01  2.879598492E+01  8.074934625E+02  8.109186626E+02  5.109985977E-04  0.00000E+00  9.000E+00
       2     1     1     2   511     0 -1.160047200E+02  2.136047848E+01  6.418780523E+02  6.526260791E+02  1.525878906E-05  0.00000E+00  9.000E+00
</event>
<event>
      6  10011  1.00000E+00  3.19073E+00 -1.00000E+00  2.88843E-01
      -2    -1     0     0     0   501  0.000000000E+00  0.000000000E+00  3.804257612E+01  3.804257612E+01  0.000000000E+00  0.00000E+00  9.000E+00
      21    -1     0     0   501   511  0.000000000E+00  0.000000000E+00 -7.991612940E+01  7.991612940E+01  0.000000000E+00  0.00000E+00  9.000E+00
      23     2     1     2     0     0  3.182638028E+00 -2.270544700E-01 -1.943200202E+01  9.529146127E+01  9.323453840E+01  0.00000E+00  9.000E+00
      11     1     3     3     0     0 -1.581355088E+01  3.525200458E+01 -3.500825550E+01  5.213779983E+01  5.109994876E-04  0.00000E+00  9.000E+00
     -11     1     3     3     0     0  1.899618890E+01 -3.547905905E+01  1.557625347E+01  4.315366145E+01  5.109985421E-04  0.00000E+00  9.000E+00
      -2     1     1     2     0   511 -3.182638028E+00  2.270544700E-01 -2.244155126E+01  2.266724425E+01  4.129530925E-07  0.00000E+00  9.000E+00
</event>
<event>
      6  10011  1.00000E+00  3.86061E+00 -1.00000E+00  2.67042E-01
      21    -1     0     0   511   501  0.000000000E+00  0.000000000E+00  7.445747872E+00  7.445747872E+00  0.000000000E+00  0.00000E+00  9.000E+00
       2    -1     0     0   501     0  0.000000000E+00  0.000000000E+00 -4.532103935E+02  4.532103935E+02  0.000000000E+00  0.00000E+00  9.000E+00
      23     2     1     2     0     0  3.486946498E+00 -1.656961864E+00 -4.472697472E+02  4.565125138E+02  9.131562922E+01  0.00000E+00  9.000E+00
      11     1     3     3     0     0 -2.562497179E+01 -2.245316052E+01 -3.676343505E+02  3.692096955E+02  5.109985977E-04  0.00000E+00  9.000E+00
     -11     1     3     3     0     0  2.911191829E+01  2.079619866E+01 -7.963539670E+01  8.730281825E+01  5.109870286E-04  0.00000E+00  9.000E+00
       2     1     1     2   511     0 -3.486946498E+00  1.656961864E+00  1.505101621E+00  4.143627564E+00  2.995096332E-07  0.00000E+00  9.000E+00
</event>
<event>
      6  10011  1.00000E+00  6.49087E+01 -1.00000E+00  1.32877E-01
       1    -1     0     0   501     0  0.000000000E+00  0.000000000E+00  6.135778379E+01  6.135778379E+01  0.000000000E+00  0.00000E+00  9.000E+00
      21    -1     0     0   511   501  0.000000000E+00  0.000000000E+00 -1.304944196E+02  1.304944196E+02  0.000000000E+00  0.00000E+00  9.000E+00
      23     2     1     2     0     0  4.002322334E+01  5.110074759E+01 -3.371270843E+01  1.179062810E+02  9.247810322E+01  0.00000E+00  9.000E+00
      11     1     3     3     0     0  1.765603536E+01  7.667262890E+01 -1.936618547E+01  8.102762952E+01  5.109973741E-04  0.00000E+00  9.000E+00
     -11     1     3     3     0     0  2.236718799E+01 -2.557188131E+01 -1.434652296E+01  3.687865146E+01  5.109992651E-04  0.00000E+00  9.000E+00
       1     1     1     2   511     0 -4.002322334E+01 -5.110074759E+01 -3.542392739E+01  7.394592242E+01  0.000000000E+00  0.00000E+00  9.000E+00
</event>
<event>
      6  10011  1.00000E+00  3.13544E+00 -1.00000E+00  2.91034E-01
       2    -1     0     0   511     0  0.000000000E+00  0.000000000E+00  3.567235169E+02  3.567235169E+02  0.000000000E+00  0.00000E+00  9.000E+00
      -2    -1     0     0     0   501  0.000000000E+00  0.000000000E+00 -5.877974271E+00  5.877974271E+00  0.000000000E+00  0.00000E+00  9.000E+00
      23     2     1     2     0     0  2.254819333E+00 -2.178710724E+00  3.322054807E+02  3.436995627E+02  8.808562319E+01  0.00000E+00  9.000E+00
      11     1     3     3     0     0  1.218941147E+01  2.047758817E+01  2.176292883E+01  3.227287470E+01  5.110018793E-04  0.00000E+00  9.000E+00
     -11     1     3     3     0     0 -9.934592141E+00 -2.265629890E+01  3.104425518E+02  3.114266880E+02  5.109416397E-04  0.00000E+00  9.000E+00
      21     1     1     2   511   501 -2.254819333E+00  2.178710724E+00  1.864006194E+01  1.890192847E+01  2.384185791E-07  0.00000E+00  9.000E+00
</event>
<event>
      6  10011  1.00000E+00  1.25005E+01 -1.00000E+00  1.85129E-01
       2    -1     0     0   501     0  0.000000000E+00  0.000000000E+00  2.595877556E+02  2.595877556E+02  0.000000000E+00  0.00000E+00  9.000E+00
      21    -1     0     0   511   501  0.000000000E+00  0.000000000E+00 -3.248447281E+01  3.248447281E+01  0.000000000E+00  0.00000E+00  9.000E+00
      23     2     1     2     0     0 -1.123639788E+01 -5.477846280E+00  2.513553924E+02  2.647880158E+02  8.232190842E+01  0.00000E+00  9.000E+00
      11     1     3     3     0     0 -4.133179384E+01 -9.888858386E+00  7.839417172E+01  8.917260153E+01  5.109968179E-04  0.00000E+00  9.000E+00
     -11     1     3     3     0     0  3.009539596E+01  4.411012106E+00  1.729612207E+02  1.756154143E+02  5.110128362E-04  0.00000E+00  9.000E+00
       2     1     1     2   511     0  1.123639788E+01  5.477846280E+00 -2.425210959E+01  2.728421259E+01  5.840038640E-07  0.00000E+00  9.000E+00
</event>
<event>
      6  10011  1.00000E+00  1.07299E+01 -1.00000E+00  1.92230E-01
       1    -1     0     0   501     0  0.000000000E+00  0.000000000E+00  1.284075686E+03  1.284075686E+03  0.000000000E+00  0.00000E+00  9.000E+00
      21    -1     0     0   511   501  0.000000000E+00  0.000000000E+00 -2.315105833E+00  2.315105833E+00  0.000000000E+00  0.00000E+00  9.000E+00
      23     2     1     2     0     0  7.868978545E+00  7.294442376E+00  1.237529561E+03  1.240876917E+03  9.044877010E+01  0.00000E+00  9.000E+00
      11     1     3     3     0     0 -4.894650555E-01  3.808117672E+01  2.548723180E+02  2.577019869E+02  5.110057170E-04  0.00000E+00  9.000E+00
     -11     1     3     3     0     0  8.358443601E+00 -3.078673434E+01  9.826572427E+02  9.831749301E+02  5.109985977E-04  0.00000E+00  9.000E+00
       1     1     1     2   511     0 -7.868978545E+00 -7.294442376E+00  4.423101969E+01  4.551387498E+01  0.000000000E+00  0.00000E+00  9.000E+00
</event>
<event>
      6  10011  1.00000E+00  5.42022E+01 -1.00000E+00  1.37077E-01
      -3    -1     0     0     0   501  0.000000000E+00  0.000000000E+00  5.324436078E+00  5.324436078E+00  0.000000000E+00  0.00000E+00  9.000E+00
      21    -1     0     0   501   511  0.000000000E+00  0.000000000E+00 -1.483146699E+03  1.483146699E+03  0.000000000E+00  0.00000E+00  9.000E+00
      23     2     1     2     0     0 -3.545128015E+00 -5.408613091E+01 -5.944023456E+02  6.033899932E+02  8.847292174E+01  0.00000E+00  9.000E+00
      11     1     3     3     0     0 -3.024954130E+01 -9.005204706E+00 -4.225582881E+02  4.237353364E+02  5.109985977E-04  0.00000E+00  9.000E+00
     -11     1     3     3     0     0  2.670441328E+01 -4.508092620E+01 -1.718440575E+02  1.796546568E+02  5.109985977E-04  0.00000E+00  9.000E+00
      -3     1     1     2     0   511  3.545128015E+00  5.408613091E+01 -8.834199176E+02  8.850811422E+02  1.525878906E-05  0.00000E+00  9.000E+00
</event>
<event>
      6  10011  1.00000E+00  1.33441E+01 -1.00000E+00  1.82257E-01
      -1    -1     0     0     0   511  0.000000000E+00  0.000000000E+00  1.360439168E+00  1.360439168E+00  0.000000000E+00  0.00000E+00  9.000E+00
       1    -1     0     0   501     0  0.000000000E+00  0.000000000E+00 -1.969182328E+03  1.969182328E+03  0.000000000E+00  0.00000E+00  9.000E+00
      23     2     1     2     0     0  9.000313900E+00  9.851930451E+00 -1.759815882E+03  1.762109169E+03  8.887472599E+01  0.00000E+00  9.000E+00
      11     1     3     3     0     0  3.009176968E+00 -3.954355951E+01 -8.695621786E+02  8.704660423E+02  5.111124946E-04  0.00000E+00  9.000E+00
     -11     1     3     3     0     0  5.991136931E+00  4.939548996E+01 -8.902537036E+02  8.916431264E+02  5.109985977E-04  0.00000E+00  9.000E+00
      21     1     1     2   501   511 -9.000313900E+00 -9.851930451E+00 -2.080060068E+02  2.084335986E+02  3.814697266E-06  0.00000E+00  9.000E+00
</event>
<event>
      6  10011  1.00000E+00  2.95272E+01 -1.00000E+00  1.53485E-01
       1    -1     0     0   501     0  0.000000000E+00  0.000000000E+00  3.555471188E+00  3.555471188E+00  0.000000000E+00  0.00000E+00  9.000E+00
      21    -1     0     0   511   501  0.000000000E+00  0.000000000E+00 -1.175102668E+03  1.175102668E+03  0.000000000E+00  0.00000E+00  9.000E+00
      23     2     1     2     0     0 -3.423890041E+00 -2.932800200E+01 -8.153994586E+02  8.212884900E+02  9.363040106E+01  0.00000E+00  9.000E+00
      11     1     3     3     0     0 -1.515350546E+01  2.136695589E+01 -8.283035355E+01  8.687371870E+01  5.110066069E-04  0.00000E+00  9.000E+00
     -11     1     3     3     0     0  1.172961542E+01 -5.069495789E+01 -7.325691050E+02  7.344147713E+02  5.107707276E-04  0.00000E+00  9.000E+00
       1     1     1     2   511     0  3.423890041E+00  2.932800200E+01 -3.561477384E+02  3.573696494E+02  5.394796609E-06  0.00000E+00  9.000E+00
</event>
<event>
      6  10011  1.00000E+00  3.50008E+01 -1.00000E+00  1.48497E-01
       2    -1     0     0   501     0  0.000000000E+00  0.000000000E+00  8.633009707E+02  8.633009707E+02  0.000000000E+00  0.00000E+00  9.000E+00
      21    -1     0     0   511   501  0.000000000E+00  0.000000000E+00 -6.304706367E+00  6.304706367E+00  0.000000000E+00  0.00000E+00  9.000E+00
      23     2     1     2     0     0 -2.412505730E+00  3.491759240E+01  7.633590269E+02  7.696407299E+02  9.167764509E+01  0.00000E+00  9.000E+00
      11     1     3     3     0     0 -4.682371639E+01  1.496102677E+01  4.128980945E+02  4.158138156E+02  5.109985977E-04  0.00000E+00  9.000E+00
     -11     1     3     3     0     0  4.441121066E+01  1.995656563E+01  3.504609324E+02  3.538269143E+02  5.110413120E-04  0.00000E+00  9.000E+00
       2     1     1     2   511     0  2.412505730E+00 -3.491759240E+01  9.363723735E+01  9.996494717E+01  2.336015456E-06  0.00000E+00  9.000E+00
</event>
<event>
      6  10011  1.00000E+00  1.50150E+00 -1.00000E+00  4.33008E-01
      -2    -1     0     0     0   501  0.000000000E+00  0.000000000E+00  1.203495299E+01  1.203495299E+01  0.000000000E+00  0.00000E+00  9.000E+00
       2    -1     0     0   511     0  0.000000000E+00  0.000000000E+00 -2.546915486E+02  2.546915486E+02  0.000000000E+00  0.00000E+00  9.000E+00
      23     2     1     2     0     0 -1.022715813E+00 -1.099338768E+00 -1.361837605E+02  1.602430798E+02  8.443680191E+01  0.00000E+00  9.000E+00
      11     1     3     3     0     0 -2.152067697E+01  1.852814544E+01 -1.274126238E+02  1.305389153E+02  5.110021574E-04  0.00000E+00  9.000E+00
     -11     1     3     3     0     0  2.049796116E+01 -1.962748421E+01 -8.771136658E+00  2.970416447E+01  5.110005166E-04  0.00000E+00  9.000E+00
      21     1     1     2   511   501  1.022715813E+00  1.099338768E+00 -1.064728351E+02  1.064834217E+02  0.000000000E+00  0.00000E+00  9.000E+00
</event>
<event>
      6  10011  1.00000E+00  9.70391E+00 -1.00000E+00  1.97219E-01
      21    -1     0     0   501   511  0.000000000E+00  0.000000000E+00  4.918672282E+00  4.918672282E+00  0.000000000E+00  0.00000E+00  9.000E+00
      -2    -1     0     0     0   501  0.000000000E+00  0.000000000E+00 -8.778744806E+02  8.778744806E+02  0.000000000E+00  0.00000E+00  9.000E+00
      23     2     1     2     0     0  8.977534223E+00 -3.683714617E+00 -8.655308975E+02  8.705745125E+02  9.307030280E+01  0.00000E+00  9.000E+00
      11     1     3     3     0     0  3.814910561E+01 -3.237032264E+01 -3.717734524E+02  3.751249018E+02  5.110555493E-04  0.00000E+00  9.000E+00
     -11     1     3     3     0     0 -2.917157138E+01  2.868660803E+01 -4.937574452E+02  4.954496107E+02  5.110840228E-04  0.00000E+00  9.000E+00
      -2     1     1     2     0   511 -8.977534223E+00  3.683714617E+00 -7.424910803E+00  1.221864045E+01  6.251387883E-07  0.00000E+00  9.000E+00
</event>
<event>
      6  10011  1.00000E+00  2.20373E+00 -1.00000E+00  3.44301E-01
      -2    -1     0     0     0   501  0.000000000E+00  0.000000000E+00  1.714292188E+00  1.714292188E+00  0.000000000E+00  0.00000E+00  9.000E+00
       2    -1     0     0   511     0  0.000000000E+00  0.000000000E+00 -1.351963687E+03  1.351963687E+03  0.000000000E+00  0.00000E+00  9.000E+00
      23     2     1     2     0     0  1.260546903E+00 -1.807602343E+00 -1.204528489E+03  1.207940411E+03  9.069894813E+01  0.00000E+00  9.000E+00
      11     1     3     3     0     0  2.405459827E+01 -3.479089911E-01 -1.123410895E+03  1.123668449E+03  5.111124946E-04  0.00000E+00  9.000E+00
     -11     1     3     3     0     0 -2.279405136E+01 -1.459693351E+00 -8.111759441E+01  8.427196215E+01  5.109950380E-04  0.00000E+00  9.000E+00
      21     1     1     2   511   501 -1.260546903E+00  1.807602343E+00 -1.457209056E+02  1.457375680E+02  0.000000000E+00  0.00000E+00  9.000E+00
</event>
<event>
      6  10011  1.00000E+00  5.22016E+00 -1.00000E+00  2.35206E-01
       2    -1     0     0   501     0  0.000000000E+00  0.000000000E+00  4.229779648E+02  4.229779648E+02  0.000000000E+00  0.00000E+00  9.000E+00
      21    -1     0     0   511   501  0.000000000E+00  0.000000000E+00 -5.541286846E+00  5.541286846E+00  0.000000000E+00  0.00000E+00  9.000E+00
      23     2     1     2     0     0 -3.650051944E+00  3.731921524E+00  3.734224332E+02  3.841965277E+02  9.019649747E+01  0.00000E+00  9.000E+00
      11     1     3     3     0     0  3.873265286E+01 -1.067548873E+01  1.124304754E+02  1.193934515E+02  5.109950380E-04  0.00000E+00  9.000E+00
     -11     1     3     3     0     0 -4.238270480E+01  1.440741025E+01  2.609919578E+02  2.648030762E+02  5.110697863E-04  0.00000E+00  9.000E+00
       2     1     1     2   511     0  3.650051944E+00 -3.731921524E+00  4.401424475E+01  4.432272395E+01  8.259061849E-07  0.00000E+00  9.000E+00
</event>
</LesHouchesEvents>
 #Random number generator exit values:     54217137      24574177             0
