<LesHouchesEvents version="3.0">
<header>
<!--
#*********************************************************************
#                                                                    *
#                        MadGraph5_aMC@NLO                           *
#                                                                    *
#                           Going Beyond                             *
#                                                                    *
#                   http://madgraph.hep.uiuc.edu                     *
#                   http://madgraph.phys.ucl.ac.be                   *
#                   http://amcatnlo.cern.ch                          *
#                                                                    *
#                     The MadGraph5_aMC@NLO team                     *
#                                                                    *
#....................................................................*
#                                                                    *
# This file contains all the information necessary to reproduce      *
# the events generated:                                              *
#                                                                    *
# 1. software version                                                *
# 2. proc_card          : code generation info including model       *
# 3. param_card         : model primary parameters in the LH format  *
# 4. run_card           : running parameters (collider and cuts)     *
# 5. pythia_card        : present only if pythia has been run        *
# 6. pgs_card           : present only if pgs has been run           *
# 7. delphes_cards      : present only if delphes has been run       *
#                                                                    *
#                                                                    *
#*********************************************************************
-->
<MGVersion>
#5.2.2.2
</MGVersion>
<MG5ProcCard>
#************************************************************
#*                     MadGraph5_aMC@NLO                    *
#*                                                          *
#*                *                       *                 *
#*                  *        * *        *                   *
#*                    * * * * 5 * * * *                     *
#*                  *        * *        *                   *
#*                *                       *                 *
#*                                                          *
#*                                                          *
#*         VERSION 2.2.2                 2014-11-06         *
#*                                                          *
#*    The MadGraph5_aMC@NLO Development Team - Find us at   *
#*    https://server06.fynu.ucl.ac.be/projects/madgraph     *
#*                                                          *
#************************************************************
#*                                                          *
#*               Command File for MadGraph5_aMC@NLO         *
#*                                                          *
#*     run as ./bin/mg5_aMC  filename                       *
#*                                                          *
#************************************************************
set loop_optimized_output True
set lhapdf /genser1/mkirsano/GENSER/GENSER5/lcgcmake-install/MCGenerat\
ors/lhapdf/6.1.4/x86_64-slc6-gcc47-opt/bin/lhapdf-config
set group_subprocesses Auto
set ignore_six_quark_processes False
set gauge unitary
set complex_mass_scheme False
import model sm
define p = g u c d s u~ c~ d~ s~
define j = g u c d s u~ c~ d~ s~
define l+ = e+ mu+
define l- = e- mu-
define vl = ve vm vt
define vl~ = ve~ vm~ vt~
generate p p > Z j j
output MYPROC
</MG5ProcCard>
<MGProcCard>
#*********************************************************************
#                        MadGraph/MadEvent                           *
#                   http://madgraph.hep.uiuc.edu                     *
#                                                                    *
#                          proc_card.dat                             *
#*********************************************************************
#                                                                    *
#            This Files is generated by MADGRAPH 5                   *
#                                                                    *
# WARNING: This Files is generated for MADEVENT (compatibility issue)*
#          This files is NOT a valid MG4 proc_card.dat               *
#          Running this in MG4 will NEVER reproduce the result of MG5*
#                                                                    *
#*********************************************************************
#*********************************************************************
# Process(es) requested : mg2 input                                  *
#*********************************************************************
# Begin PROCESS # This is TAG. Do not modify this line
p p > Z j j           #Process
# Be carefull the coupling are here in MG5 convention
          
end_coup           # End the couplings input

done               # this tells MG there are no more procs
# End PROCESS  # This is TAG. Do not modify this line
#*********************************************************************
# Model information                                                  *
#*********************************************************************
# Begin MODEL  # This is TAG. Do not modify this line
sm
# End   MODEL  # This is TAG. Do not modify this line
#*********************************************************************
# Start multiparticle definitions                                    *
#*********************************************************************
# Begin MULTIPARTICLES # This is TAG. Do not modify this line

# End  MULTIPARTICLES # This is TAG. Do not modify this line
</MGProcCard>
<MGRunCard>
#*********************************************************************
#                       MadGraph5_aMC@NLO                            *
#                                                                    *
#                     run_card.dat MadEvent                          *
#                                                                    *
#  This file is used to set the parameters of the run.               *
#                                                                    *
#  Some notation/conventions:                                        *
#                                                                    *
#   Lines starting with a '# ' are info or comments                  *
#                                                                    *
#   mind the format:   value    = variable     ! comment             *
#*********************************************************************
#
#*******************                                                 
# Running parameters
#*******************                                                 
#                                                                    
#*********************************************************************
# Tag name for the run (one word)                                    *
#*********************************************************************
  tag_1     = run_tag ! name of the run 
#*********************************************************************
# Run to generate the grid pack                                      *
#*********************************************************************
  .false.     = gridpack  !True = setting up the grid pack
#*********************************************************************
# Number of events and rnd seed                                      *
# Warning: Do not generate more than 1M events in a single run       *
# If you want to run Pythia, avoid more than 50k events in a run.    *
#*********************************************************************
    100 = nevents ! Number of unweighted events requested 
 30 = iseed   ! rnd seed (0=assigned automatically=default))
#*********************************************************************
# Collider type and energy                                           *
# lpp: 0=No PDF, 1=proton, -1=antiproton, 2=photon from proton,      *
#                                         3=photon from electron     *
#*********************************************************************
        1     = lpp1    ! beam 1 type 
        1     = lpp2    ! beam 2 type
     6500     = ebeam1  ! beam 1 total energy in GeV
     6500     = ebeam2  ! beam 2 total energy in GeV
#*********************************************************************
# Beam polarization from -100 (left-handed) to 100 (right-handed)    *
#*********************************************************************
        0     = polbeam1 ! beam polarization for beam 1
        0     = polbeam2 ! beam polarization for beam 2
#*********************************************************************
# PDF CHOICE: this automatically fixes also alpha_s and its evol.    *
#*********************************************************************
 'nn23lo1'    = pdlabel     ! PDF set                                     
 230000    = lhaid     ! if pdlabel=lhapdf, this is the lhapdf number
#*********************************************************************
# Renormalization and factorization scales                           *
#*********************************************************************
 F        = fixed_ren_scale  ! if .true. use fixed ren scale
 F        = fixed_fac_scale  ! if .true. use fixed fac scale
 91.1880  = scale            ! fixed ren scale
 91.1880  = dsqrt_q2fact1    ! fixed fact scale for pdf1
 91.1880  = dsqrt_q2fact2    ! fixed fact scale for pdf2
 1        = scalefact        ! scale factor for event-by-event scales
#*********************************************************************
# Matching - Warning! ickkw > 1 is still beta
#*********************************************************************
 0        = ickkw            ! 0 no matching, 1 MLM, 2 CKKW matching
 1        = highestmult      ! for ickkw=2, highest mult group
 1        = ktscheme         ! for ickkw=1, 1 Durham kT, 2 Pythia pTE
 1        = alpsfact         ! scale factor for QCD emission vx
 F        = chcluster        ! cluster only according to channel diag
 T        = pdfwgt           ! for ickkw=1, perform pdf reweighting
 5        = asrwgtflavor     ! highest quark flavor for a_s reweight
 T        = clusinfo         ! include clustering tag in output
 3.0      = lhe_version       ! Change the way clustering information pass to shower.        
#*********************************************************************
#**********************************************************
#
#**********************************************************
# Automatic ptj and mjj cuts if xqcut > 0
# (turn off for VBF and single top processes)
#**********************************************************
   T  = auto_ptj_mjj  ! Automatic setting of ptj and mjj
#**********************************************************
#                                                                    
#**********************************
# BW cutoff (M+/-bwcutoff*Gamma)
#**********************************
  15  = bwcutoff      ! (M+/-bwcutoff*Gamma)
#**********************************************************
# Apply pt/E/eta/dr/mij cuts on decay products or not
# (note that etmiss/ptll/ptheavy/ht/sorted cuts always apply)
#**********************************************************
   T  = cut_decays    ! Cut decay products 
#*************************************************************
# Number of helicities to sum per event (0 = all helicities)
# 0 gives more stable result, but longer run time (needed for
# long decay chains e.g.).
# Use >=2 if most helicities contribute, e.g. pure QCD.
#*************************************************************
   0  = nhel          ! Number of helicities used per event
#*******************                                                 
# Standard Cuts
#*******************                                                 
#                                                                    
#*********************************************************************
# Minimum and maximum pt's (for max, -1 means no cut)                *
#*********************************************************************
 20  = ptj       ! minimum pt for the jets 
  0  = ptb       ! minimum pt for the b 
 10  = pta       ! minimum pt for the photons 
 10  = ptl       ! minimum pt for the charged leptons 
  0  = misset    ! minimum missing Et (sum of neutrino's momenta)
  0  = ptheavy   ! minimum pt for one heavy final state
 1.0 = ptonium   ! minimum pt for the quarkonium states
 -1  = ptjmax    ! maximum pt for the jets
 -1  = ptbmax    ! maximum pt for the b
 -1  = ptamax    ! maximum pt for the photons
 -1  = ptlmax    ! maximum pt for the charged leptons
 -1  = missetmax ! maximum missing Et (sum of neutrino's momenta)
#*********************************************************************
# Minimum and maximum E's (in the center of mass frame)              *
#*********************************************************************
  0  = ej     ! minimum E for the jets 
  0  = eb     ! minimum E for the b 
  0  = ea     ! minimum E for the photons 
  0  = el     ! minimum E for the charged leptons 
 -1   = ejmax ! maximum E for the jets
 -1   = ebmax ! maximum E for the b
 -1   = eamax ! maximum E for the photons
 -1   = elmax ! maximum E for the charged leptons
#*********************************************************************
# Maximum and minimum absolute rapidity (for max, -1 means no cut)   *
#*********************************************************************
   5  = etaj    ! max rap for the jets 
  -1  = etab    ! max rap for the b
 2.5  = etaa    ! max rap for the photons 
 2.5  = etal    ! max rap for the charged leptons 
 0.6  = etaonium ! max rap for the quarkonium states
   0  = etajmin ! min rap for the jets
   0  = etabmin ! min rap for the b
   0  = etaamin ! min rap for the photons
   0  = etalmin ! main rap for the charged leptons
#*********************************************************************
# Minimum and maximum DeltaR distance                                *
#*********************************************************************
 0.4 = drjj    ! min distance between jets 
 0   = drbb    ! min distance between b's 
 0.4 = drll    ! min distance between leptons 
 0.4 = draa    ! min distance between gammas 
 0   = drbj    ! min distance between b and jet 
 0.4 = draj    ! min distance between gamma and jet 
 0.4 = drjl    ! min distance between jet and lepton 
 0   = drab    ! min distance between gamma and b 
 0   = drbl    ! min distance between b and lepton 
 0.4 = dral    ! min distance between gamma and lepton 
 -1  = drjjmax ! max distance between jets
 -1  = drbbmax ! max distance between b's
 -1  = drllmax ! max distance between leptons
 -1  = draamax ! max distance between gammas
 -1  = drbjmax ! max distance between b and jet
 -1  = drajmax ! max distance between gamma and jet
 -1  = drjlmax ! max distance between jet and lepton
 -1  = drabmax ! max distance between gamma and b
 -1  = drblmax ! max distance between b and lepton
 -1  = dralmax ! maxdistance between gamma and lepton
#*********************************************************************
# Minimum and maximum invariant mass for pairs                       *
# WARNING: for four lepton final state mmll cut require to have      *
#          different lepton masses for each flavor!                  *           
#*********************************************************************
 0   = mmjj    ! min invariant mass of a jet pair 
 0   = mmbb    ! min invariant mass of a b pair 
 0   = mmaa    ! min invariant mass of gamma gamma pair
 0   = mmll    ! min invariant mass of l+l- (same flavour) lepton pair
 -1  = mmjjmax ! max invariant mass of a jet pair
 -1  = mmbbmax ! max invariant mass of a b pair
 -1  = mmaamax ! max invariant mass of gamma gamma pair
 -1  = mmllmax ! max invariant mass of l+l- (same flavour) lepton pair
#*********************************************************************
# Minimum and maximum invariant mass for all letpons                 *
#*********************************************************************
 0   = mmnl    ! min invariant mass for all letpons (l+- and vl) 
 -1  = mmnlmax ! max invariant mass for all letpons (l+- and vl) 
#*********************************************************************
# Minimum and maximum pt for 4-momenta sum of leptons                *
#*********************************************************************
 0   = ptllmin  ! Minimum pt for 4-momenta sum of leptons(l and vl)
 -1  = ptllmax  ! Maximum pt for 4-momenta sum of leptons(l and vl)
#*********************************************************************
# Inclusive cuts                                                     *
#*********************************************************************
 0  = xptj ! minimum pt for at least one jet  
 0  = xptb ! minimum pt for at least one b 
 0  = xpta ! minimum pt for at least one photon 
 0  = xptl ! minimum pt for at least one charged lepton 
#*********************************************************************
# Control the pt's of the jets sorted by pt                          *
#*********************************************************************
 0   = ptj1min ! minimum pt for the leading jet in pt
 0   = ptj2min ! minimum pt for the second jet in pt
 0   = ptj3min ! minimum pt for the third jet in pt
 0   = ptj4min ! minimum pt for the fourth jet in pt
 -1  = ptj1max ! maximum pt for the leading jet in pt 
 -1  = ptj2max ! maximum pt for the second jet in pt
 -1  = ptj3max ! maximum pt for the third jet in pt
 -1  = ptj4max ! maximum pt for the fourth jet in pt
 0   = cutuse  ! reject event if fails any (0) / all (1) jet pt cuts
#*********************************************************************
# Control the pt's of leptons sorted by pt                           *
#*********************************************************************
 0   = ptl1min ! minimum pt for the leading lepton in pt
 0   = ptl2min ! minimum pt for the second lepton in pt
 0   = ptl3min ! minimum pt for the third lepton in pt
 0   = ptl4min ! minimum pt for the fourth lepton in pt
 -1  = ptl1max ! maximum pt for the leading lepton in pt 
 -1  = ptl2max ! maximum pt for the second lepton in pt
 -1  = ptl3max ! maximum pt for the third lepton in pt
 -1  = ptl4max ! maximum pt for the fourth lepton in pt
#*********************************************************************
# Control the Ht(k)=Sum of k leading jets                            *
#*********************************************************************
 0   = htjmin ! minimum jet HT=Sum(jet pt)
 -1  = htjmax ! maximum jet HT=Sum(jet pt)
 0   = ihtmin  !inclusive Ht for all partons (including b)
 -1  = ihtmax  !inclusive Ht for all partons (including b)
 0   = ht2min ! minimum Ht for the two leading jets
 0   = ht3min ! minimum Ht for the three leading jets
 0   = ht4min ! minimum Ht for the four leading jets
 -1  = ht2max ! maximum Ht for the two leading jets
 -1  = ht3max ! maximum Ht for the three leading jets
 -1  = ht4max ! maximum Ht for the four leading jets
#***********************************************************************
# Photon-isolation cuts, according to hep-ph/9801442                   *
# When ptgmin=0, all the other parameters are ignored                  *
# When ptgmin>0, pta and draj are not going to be used                 *
#***********************************************************************
   0 = ptgmin ! Min photon transverse momentum
 0.4 = R0gamma ! Radius of isolation code
 1.0 = xn ! n parameter of eq.(3.4) in hep-ph/9801442
 1.0 = epsgamma ! epsilon_gamma parameter of eq.(3.4) in hep-ph/9801442
 .true. = isoEM ! isolate photons from EM energy (photons and leptons)
#*********************************************************************
# WBF cuts                                                           *
#*********************************************************************
 0   = xetamin ! minimum rapidity for two jets in the WBF case  
 0   = deltaeta ! minimum rapidity for two jets in the WBF case 
#*********************************************************************
# KT DURHAM CUT                                                      *
#*********************************************************************
 -1    =  ktdurham        
 0.4  =  dparameter 
#*********************************************************************
# maximal pdg code for quark to be considered as a light jet         *
# (otherwise b cuts are applied)                                     *
#*********************************************************************
 4 = maxjetflavor    ! Maximum jet pdg code
#*********************************************************************
# Jet measure cuts                                                   *
#*********************************************************************
 0   = xqcut   ! minimum kt jet measure between partons
#*********************************************************************
#
#*********************************************************************
# Store info for systematics studies                                 *
# WARNING: If use_syst is T, matched Pythia output is                *
#          meaningful ONLY if plotted taking matchscale              *
#          reweighting into account!                                 *
#*********************************************************************
   F  = use_syst      ! Enable systematics studies
#
#**************************************
# Parameter of the systematics study
#  will be used by SysCalc (if installed)
#**************************************                                  
#
0.5 1 2 = sys_scalefact  # factorization/renormalization scale factor
0.5 1 2 = sys_alpsfact  # \alpha_s emission scale factors
30 50 = sys_matchscale # variation of merging scale
# PDF sets and number of members (0 or none for all members).
CT10nlo.LHgrid = sys_pdf # matching scales
# MSTW2008nlo68cl.LHgrid 1  = sys_pdf
</MGRunCard>
<slha>
######################################################################
## PARAM_CARD AUTOMATICALY GENERATED BY MG5 FOLLOWING UFO MODEL   ####
######################################################################
##                                                                  ##
##  Width set on Auto will be computed following the information    ##
##        present in the decay.py files of the model.               ##
##        See  arXiv:1402.1178 for more details.                    ##
##                                                                  ##
######################################################################

###################################
## INFORMATION FOR MASS
###################################
Block mass 
    5 4.700000e+00 # MB 
    6 1.730000e+02 # MT 
   15 1.777000e+00 # MTA 
   23 9.118800e+01 # MZ 
   25 1.250000e+02 # MH 
## Dependent parameters, given by model restrictions.
## Those values should be edited following the 
## analytical expression. MG5 ignores those values 
## but they are important for interfacing the output of MG5
## to external program such as Pythia.
  1 0.000000 # d : 0.0 
  2 0.000000 # u : 0.0 
  3 0.000000 # s : 0.0 
  4 0.000000 # c : 0.0 
  11 0.000000 # e- : 0.0 
  12 0.000000 # ve : 0.0 
  13 0.000000 # mu- : 0.0 
  14 0.000000 # vm : 0.0 
  16 0.000000 # vt : 0.0 
  21 0.000000 # g : 0.0 
  22 0.000000 # a : 0.0 
  24 80.419002 # w+ : cmath.sqrt(MZ__exp__2/2. + cmath.sqrt(MZ__exp__4/4. - (aEW*cmath.pi*MZ__exp__2)/(Gf*sqrt__2))) 

###################################
## INFORMATION FOR SMINPUTS
###################################
Block sminputs 
    1 1.325070e+02 # aEWM1 
    2 1.166390e-05 # Gf 
    3 1.180000e-01 # aS 

###################################
## INFORMATION FOR YUKAWA
###################################
Block yukawa 
    5 4.700000e+00 # ymb 
    6 1.730000e+02 # ymt 
   15 1.777000e+00 # ymtau 

###################################
## INFORMATION FOR DECAY
###################################
DECAY   6 1.491500e+00 # WT 
DECAY  23 2.441404e+00 # WZ 
DECAY  24 2.047600e+00 # WW 
DECAY  25 6.382339e-03 # WH 
## Dependent parameters, given by model restrictions.
## Those values should be edited following the 
## analytical expression. MG5 ignores those values 
## but they are important for interfacing the output of MG5
## to external program such as Pythia.
DECAY  1 0.000000 # d : 0.0 
DECAY  2 0.000000 # u : 0.0 
DECAY  3 0.000000 # s : 0.0 
DECAY  4 0.000000 # c : 0.0 
DECAY  5 0.000000 # b : 0.0 
DECAY  11 0.000000 # e- : 0.0 
DECAY  12 0.000000 # ve : 0.0 
DECAY  13 0.000000 # mu- : 0.0 
DECAY  14 0.000000 # vm : 0.0 
DECAY  15 0.000000 # ta- : 0.0 
DECAY  16 0.000000 # vt : 0.0 
DECAY  21 0.000000 # g : 0.0 
DECAY  22 0.000000 # a : 0.0
</slha>
## END BANNER##
<MGGenerationInfo>
#  Number of Events        :          100
#  Integrated weight (pb)  :  0.46423E+04
#  Truncated wgt (pb)      :  0.00000E+00
#  Unit wgt                :  0.46423E+02
</MGGenerationInfo>
</header>
<init>
     2212     2212  0.65000000000E+04  0.65000000000E+04 0 0  200400  200400  3   1
  0.43190084000E+04  0.36536152096E+02  0.46423000000E+02   0
<generator name='MadGraph5_aMC@NLO' version='#5.2.2.2'>please cite 1405.0301 </generator>
</init>
<event>
 5   0  0.4642300E+02  0.2329513E+03  0.7546771E-02  0.1124580E+00
       21   -1    0    0  503  502  0.00000000000E+00  0.00000000000E+00  0.22546094267E+03  0.22546094267E+03  0.00000000000E+00 0.  1.
       -1   -1    0    0    0  501  0.00000000000E+00  0.00000000000E+00 -0.11031200279E+03  0.11031200279E+03  0.00000000000E+00 0.  1.
       23    1    1    2    0    0  0.39495401971E+02 -0.22106233251E+02 -0.78075639754E+02  0.12829508891E+03  0.91188003540E+02 0.  1.
       21    1    1    2  503  501 -0.45961778500E+02 -0.29366253221E+01  0.90469865852E+02  0.10151800569E+03  0.00000000000E+00 0.  1.
       -1    1    1    2    0  502  0.64663765290E+01  0.25042858573E+02  0.10275471379E+03  0.10595985087E+03  0.00000000000E+00 0.  1.
</event>
<event>
 5   0  0.4642300E+02  0.1066775E+03  0.7546771E-02  0.1266849E+00
        4   -1    0    0  503    0  0.00000000000E+00  0.00000000000E+00  0.14649712089E+04  0.14649712089E+04  0.00000000000E+00 0. -1.
       21   -1    0    0  501  502  0.00000000000E+00  0.00000000000E+00 -0.14102754664E+02  0.14102754664E+02  0.00000000000E+00 0.  1.
       23    1    1    2    0    0 -0.14930888413E+02  0.54849881328E+02  0.21378333575E+03  0.23926973805E+03  0.91188003540E+02 0.  1.
       21    1    1    2  503  502  0.26558944559E+02 -0.17332249777E+01  0.31788170840E+03  0.31899398449E+03  0.00000000000E+00 0. -1.
        4    1    1    2  501    0 -0.11628056146E+02 -0.53116656351E+02  0.91920341010E+03  0.92081024105E+03  0.00000000000E+00 0. -1.
</event>
<event>
 5   0  0.4642300E+02  0.9222753E+02  0.7546771E-02  0.1297545E+00
        2   -1    0    0  502    0  0.00000000000E+00  0.00000000000E+00  0.81807046743E+03  0.81807046743E+03  0.00000000000E+00 0. -1.
       21   -1    0    0  503  502  0.00000000000E+00  0.00000000000E+00 -0.20502265058E+03  0.20502265058E+03  0.00000000000E+00 0.  1.
       23    1    1    2    0    0 -0.69789399502E+01  0.10783463141E+02  0.76312011448E+03  0.76865632749E+03  0.91188003540E+02 0. -1.
       21    1    1    2  503  501  0.70660038113E+01 -0.82197023533E+02 -0.16222371511E+03  0.18199673851E+03  0.00000000000E+00 0.  1.
        2    1    1    2  501    0 -0.87063861130E-01  0.71413560392E+02  0.12151417475E+02  0.72440052006E+02  0.00000000000E+00 0. -1.
</event>
<event>
 5   0  0.4642300E+02  0.2727223E+03  0.7546771E-02  0.1099732E+00
        1   -1    0    0  503    0  0.00000000000E+00  0.00000000000E+00  0.64984433674E+03  0.64984433674E+03  0.00000000000E+00 0. -1.
       21   -1    0    0  501  502  0.00000000000E+00  0.00000000000E+00 -0.43074750303E+02  0.43074750303E+02  0.00000000000E+00 0. -1.
       23    1    1    2    0    0 -0.18633396826E+02 -0.71552960974E+02  0.54448531704E+03  0.55699779368E+03  0.91188003540E+02 0. -1.
       21    1    1    2  503  502  0.45585878719E+02  0.18046374520E+01  0.29111723092E+02  0.54118587161E+02  0.00000000000E+00 0. -1.
        1    1    1    2  501    0 -0.26952481892E+02  0.69748323522E+02  0.33172546310E+02  0.81802706208E+02  0.00000000000E+00 0. -1.
</event>
<event>
 5   0  0.4642300E+02  0.1192117E+03  0.7546771E-02  0.1244403E+00
       -1   -1    0    0    0  501  0.00000000000E+00  0.00000000000E+00  0.59297107082E+02  0.59297107082E+02  0.00000000000E+00 0.  1.
       21   -1    0    0  501  502  0.00000000000E+00  0.00000000000E+00 -0.36909514189E+03  0.36909514189E+03  0.00000000000E+00 0.  1.
       23    1    1    2    0    0 -0.43034472865E+02 -0.73651972112E+02 -0.48749290542E+02  0.13404597782E+03  0.91188003540E+02 0.  1.
       21    1    1    2  503  502 -0.21308707669E+02  0.37971450653E+02 -0.17865368097E+03  0.18388319611E+03  0.00000000000E+00 0.  1.
       -1    1    1    2    0  503  0.64343180533E+02  0.35680521460E+02 -0.82395063292E+02  0.11046307504E+03  0.00000000000E+00 0.  1.
</event>
<event>
 5   0  0.4642300E+02  0.9544868E+02  0.7546771E-02  0.1290169E+00
        2   -1    0    0  502    0  0.00000000000E+00  0.00000000000E+00  0.12106210876E+04  0.12106210876E+04  0.00000000000E+00 0. -1.
       -2   -1    0    0    0  501  0.00000000000E+00  0.00000000000E+00 -0.10795133829E+02  0.10795133829E+02  0.00000000000E+00 0.  1.
       23    1    1    2    0    0  0.38160220276E+02  0.16638957899E+02  0.42825854686E+03  0.43983370980E+03  0.91188003540E+02 0.  0.
       21    1    1    2  502  503 -0.23595501528E+02  0.67687491479E+01  0.73681057162E+03  0.73721935820E+03  0.00000000000E+00 0. -1.
       21    1    1    2  503  501 -0.14564718748E+02 -0.23407707047E+02  0.34756835253E+02  0.44363153384E+02  0.00000000000E+00 0.  1.
</event>
<event>
 5   0  0.4642300E+02  0.9340125E+02  0.7546771E-02  0.1294818E+00
       21   -1    0    0  501  502  0.00000000000E+00  0.00000000000E+00  0.15990492217E+01  0.15990492217E+01  0.00000000000E+00 0.  1.
        2   -1    0    0  503    0  0.00000000000E+00  0.00000000000E+00 -0.43659887198E+04  0.43659887198E+04  0.00000000000E+00 0. -1.
       23    1    1    2    0    0 -0.52698954727E+01  0.11355226496E+02 -0.33913460675E+04  0.33925948940E+04  0.91188003540E+02 0. -1.
       21    1    1    2  503  502 -0.16271386893E+02 -0.18312101433E+02 -0.81164062326E+03  0.81201021694E+03  0.00000000000E+00 0. -1.
        2    1    1    2  501    0  0.21541282366E+02  0.69568749372E+01 -0.16140297981E+03  0.16298265811E+03  0.00000000000E+00 0. -1.
</event>
<event>
 5   0  0.4642300E+02  0.9338265E+02  0.7546771E-02  0.1294861E+00
        2   -1    0    0  503    0  0.00000000000E+00  0.00000000000E+00  0.30521434520E+04  0.30521434520E+04  0.00000000000E+00 0.  1.
       21   -1    0    0  501  502  0.00000000000E+00  0.00000000000E+00 -0.35355095248E+01  0.35355095248E+01  0.00000000000E+00 0.  1.
       23    1    1    2    0    0  0.18967253770E+01 -0.15943331790E+02  0.27671662219E+04  0.27687148533E+04  0.91188003540E+02 0.  1.
       21    1    1    2  503  502  0.22307934273E+02 -0.62693918746E+01  0.11759623223E+03  0.11985751141E+03  0.00000000000E+00 0.  1.
        2    1    1    2  501    0 -0.24204659650E+02  0.22212723664E+02  0.16384548834E+03  0.16710659679E+03  0.00000000000E+00 0.  1.
</event>
<event>
 5   0  0.4642300E+02  0.9838983E+02  0.7546771E-02  0.1283719E+00
       -1   -1    0    0    0  501  0.00000000000E+00  0.00000000000E+00  0.87732369505E+03  0.87732369505E+03  0.00000000000E+00 0. -1.
       -1   -1    0    0    0  502  0.00000000000E+00  0.00000000000E+00 -0.52805859038E+02  0.52805859038E+02  0.00000000000E+00 0.  1.
       23    1    1    2    0    0  0.46634183148E+01  0.31778529700E+02  0.29457230013E+02  0.10106731821E+03  0.91188003540E+02 0.  1.
       -1    1    1    2    0  502 -0.30149027326E+02 -0.21662908661E+02  0.80028802496E+03  0.80114865559E+03  0.00000000000E+00 0. -1.
       -1    1    1    2    0  501  0.25485609011E+02 -0.10115621039E+02 -0.52274189588E+01  0.27913580291E+02  0.00000000000E+00 0.  1.
</event>
<event>
 5   0  0.4642300E+02  0.1397735E+03  0.7546771E-02  0.1213634E+00
        1   -1    0    0  502    0  0.00000000000E+00  0.00000000000E+00  0.10699308225E+04  0.10699308225E+04  0.00000000000E+00 0. -1.
       21   -1    0    0  503  502  0.00000000000E+00  0.00000000000E+00 -0.75079922164E+01  0.75079922164E+01  0.00000000000E+00 0.  1.
       23    1    1    2    0    0  0.20642367837E+02  0.31177453856E+01  0.75078262085E+03  0.75658814652E+03  0.91188003540E+02 0.  0.
       21    1    1    2  503  501  0.23153666495E+02  0.59951023867E+01  0.50145636657E+02  0.55557343354E+02  0.00000000000E+00 0.  1.
        1    1    1    2  501    0 -0.43796034332E+02 -0.91128477723E+01  0.26149457281E+03  0.26529332489E+03  0.00000000000E+00 0. -1.
</event>
<event>
 5   0  0.4642300E+02  0.1811272E+03  0.7546771E-02  0.1166717E+00
       -1   -1    0    0    0  501  0.00000000000E+00  0.00000000000E+00  0.43444561678E+03  0.43444561678E+03  0.00000000000E+00 0.  1.
       21   -1    0    0  501  502  0.00000000000E+00  0.00000000000E+00 -0.40628937144E+02  0.40628937144E+02  0.00000000000E+00 0. -1.
       23    1    1    2    0    0  0.45028027956E+00 -0.29587672105E+02  0.37332960074E+03  0.38544244171E+03  0.91188003540E+02 0.  1.
       21    1    1    2  503  502  0.23936072090E+02 -0.13418626202E+02 -0.12545921628E+02  0.30172756350E+02  0.00000000000E+00 0. -1.
       -1    1    1    2    0  503 -0.24386352370E+02  0.43006298307E+02  0.33033000524E+02  0.59459355863E+02  0.00000000000E+00 0.  1.
</event>
<event>
 5   0  0.4642300E+02  0.1011657E+03  0.7546771E-02  0.1277863E+00
        1   -1    0    0  502    0  0.00000000000E+00  0.00000000000E+00  0.97557846699E+02  0.97557846699E+02  0.00000000000E+00 0. -1.
       21   -1    0    0  503  502  0.00000000000E+00  0.00000000000E+00 -0.57009158248E+02  0.57009158248E+02  0.00000000000E+00 0. -1.
       23    1    1    2    0    0 -0.15416514168E+02 -0.41007160610E+02  0.21045837227E+02  0.10333167658E+03  0.91188003540E+02 0. -1.
       21    1    1    2  503  501  0.26574592653E-01  0.25484665373E+02  0.95160282144E+01  0.27203376047E+02  0.00000000000E+00 0. -1.
        1    1    1    2  501    0  0.15389939575E+02  0.15522495237E+02  0.99868230098E+01  0.24031952321E+02  0.00000000000E+00 0. -1.
</event>
<event>
 5   0  0.4642300E+02  0.1177561E+03  0.7546771E-02  0.1246845E+00
       -1   -1    0    0    0  501  0.00000000000E+00  0.00000000000E+00  0.79609184696E+03  0.79609184696E+03  0.00000000000E+00 0.  1.
       21   -1    0    0  503  502  0.00000000000E+00  0.00000000000E+00 -0.21183249167E+02  0.21183249167E+02  0.00000000000E+00 0.  1.
       23    1    1    2    0    0  0.28753256541E+02  0.73487989253E+02  0.45036406068E+03  0.46622985047E+03  0.91188003540E+02 0.  1.
       21    1    1    2  503  501 -0.35554252024E+02  0.11843779183E+01  0.28296513046E+02  0.45455475342E+02  0.00000000000E+00 0.  1.
       -1    1    1    2    0  502  0.68009954830E+01 -0.74672367171E+02  0.29624802406E+03  0.30558977031E+03  0.00000000000E+00 0.  1.
</event>
<event>
 5   0  0.4642300E+02  0.1630280E+03  0.7546771E-02  0.1185320E+00
       -1   -1    0    0    0  501  0.00000000000E+00  0.00000000000E+00  0.39922470660E+03  0.39922470660E+03  0.00000000000E+00 0.  1.
        1   -1    0    0  501    0  0.00000000000E+00  0.00000000000E+00 -0.16844389760E+04  0.16844389760E+04  0.00000000000E+00 0.  1.
       23    1    1    2    0    0  0.99952275188E+01 -0.22157790891E+01  0.38247643636E+03  0.39332974793E+03  0.91188003540E+02 0.  1.
        1    1    1    2  502    0 -0.22803924982E+02  0.20595817824E+02 -0.16676479533E+04  0.16679310246E+04  0.00000000000E+00 0.  1.
       -1    1    1    2    0  502  0.12808697463E+02 -0.18380038735E+02 -0.42752525173E-01  0.22402910132E+02  0.00000000000E+00 0.  1.
</event>
<event>
 5   0  0.4642300E+02  0.1003645E+03  0.7546771E-02  0.1279531E+00
       21   -1    0    0  501  502  0.00000000000E+00  0.00000000000E+00  0.33536404638E+02  0.33536404638E+02  0.00000000000E+00 0.  1.
        1   -1    0    0  503    0  0.00000000000E+00  0.00000000000E+00 -0.26931101259E+03  0.26931101259E+03  0.00000000000E+00 0. -1.
       23    1    1    2    0    0  0.20180362088E+02 -0.30927720192E+01 -0.13912632373E+03  0.16759534062E+03  0.91188003540E+02 0. -1.
       21    1    1    2  503  502  0.35248162529E+02 -0.49140401398E+00 -0.19798422498E+02  0.40430829487E+02  0.00000000000E+00 0. -1.
        1    1    1    2  501    0 -0.55428524617E+02  0.35841760332E+01 -0.76849861723E+02  0.94821247123E+02  0.00000000000E+00 0. -1.
</event>
<event>
 5   0  0.4642300E+02  0.1112404E+03  0.7546771E-02  0.1258290E+00
        2   -1    0    0  503    0  0.00000000000E+00  0.00000000000E+00  0.78624015624E+03  0.78624015624E+03  0.00000000000E+00 0.  1.
       21   -1    0    0  501  502  0.00000000000E+00  0.00000000000E+00 -0.20206754645E+03  0.20206754645E+03  0.00000000000E+00 0.  1.
       23    1    1    2    0    0  0.37273505992E+02 -0.58655012662E+02  0.72261662198E+03  0.73165549209E+03  0.91188003540E+02 0.  1.
       21    1    1    2  503  502 -0.49030417772E+02  0.22861254320E+02  0.44388526341E+02  0.69978282965E+02  0.00000000000E+00 0. -1.
        2    1    1    2  501    0  0.11756911780E+02  0.35793758342E+02 -0.18283253853E+03  0.18667392763E+03  0.00000000000E+00 0.  1.
</event>
<event>
 5   0  0.4642300E+02  0.1642654E+03  0.7546771E-02  0.1183964E+00
       21   -1    0    0  501  502  0.00000000000E+00  0.00000000000E+00  0.24512965708E+02  0.24512965708E+02  0.00000000000E+00 0. -1.
        2   -1    0    0  503    0  0.00000000000E+00  0.00000000000E+00 -0.99027636820E+03  0.99027636820E+03  0.00000000000E+00 0. -1.
       23    1    1    2    0    0 -0.53257175641E+02 -0.11004262625E+02 -0.82732504151E+03  0.83410994291E+03  0.91188003540E+02 0. -1.
       21    1    1    2  503  502  0.63325370513E+02 -0.25569646078E+02 -0.50587512291E+02  0.84988268313E+02  0.00000000000E+00 0. -1.
        2    1    1    2  501    0 -0.10068194872E+02  0.36573908703E+02 -0.87850848687E+02  0.95691122685E+02  0.00000000000E+00 0. -1.
</event>
<event>
 5   0  0.4642300E+02  0.9293225E+02  0.7546771E-02  0.1295902E+00
       21   -1    0    0  503  502  0.00000000000E+00  0.00000000000E+00  0.27230241810E+02  0.27230241810E+02  0.00000000000E+00 0. -1.
        1   -1    0    0  502    0  0.00000000000E+00  0.00000000000E+00 -0.88390160266E+03  0.88390160266E+03  0.00000000000E+00 0. -1.
       23    1    1    2    0    0  0.13586896697E+02  0.65942215259E+01 -0.71835207749E+03  0.72427415165E+03  0.91188003540E+02 0. -1.
       21    1    1    2  503  501 -0.18631544093E+02 -0.42996606214E+02 -0.33554241785E+01  0.46979798346E+02  0.00000000000E+00 0. -1.
        1    1    1    2  501    0  0.50446473960E+01  0.36402384688E+02 -0.13496385918E+03  0.13987789448E+03  0.00000000000E+00 0. -1.
</event>
<event>
 5   0  0.4642300E+02  0.2561812E+03  0.7546771E-02  0.1109460E+00
       -3   -1    0    0    0  501  0.00000000000E+00  0.00000000000E+00  0.21257561050E+03  0.21257561050E+03  0.00000000000E+00 0.  1.
       21   -1    0    0  503  502  0.00000000000E+00  0.00000000000E+00 -0.13839474005E+03  0.13839474005E+03  0.00000000000E+00 0.  1.
       23    1    1    2    0    0  0.30460173468E+02 -0.52953209231E+02  0.83515495361E+02  0.13792010184E+03  0.91188003540E+02 0.  1.
       21    1    1    2  503  501 -0.25553513758E+02 -0.11953738545E+02  0.89983553776E+02  0.94302247485E+02  0.00000000000E+00 0.  1.
       -3    1    1    2    0  502 -0.49066597100E+01  0.64906947776E+02 -0.99318178688E+02  0.11874800123E+03  0.00000000000E+00 0.  1.
</event>
<event>
 5   0  0.4642300E+02  0.1685491E+03  0.7546771E-02  0.1179369E+00
       21   -1    0    0  503  502  0.00000000000E+00  0.00000000000E+00  0.78298445520E+02  0.78298445520E+02  0.00000000000E+00 0. -1.
       21   -1    0    0  501  503  0.00000000000E+00  0.00000000000E+00 -0.12840224876E+03  0.12840224876E+03  0.00000000000E+00 0.  1.
       23    1    1    2    0    0  0.36815311739E+02  0.12333187213E+02 -0.37130348944E+02  0.10583661695E+03  0.91188003540E+02 0.  0.
        2    1    1    2  501    0 -0.62475864997E+02 -0.96425562828E+01  0.12685775349E+02  0.64475898559E+02  0.00000000000E+00 0.  1.
       -2    1    1    2    0  502  0.25660553259E+02 -0.26906309300E+01 -0.25659229648E+02  0.36388178774E+02  0.00000000000E+00 0. -1.
</event>
<event>
 5   0  0.4642300E+02  0.1270783E+03  0.7546771E-02  0.1231856E+00
        2   -1    0    0  502    0  0.00000000000E+00  0.00000000000E+00  0.75379016079E+03  0.75379016079E+03  0.00000000000E+00 0.  1.
       21   -1    0    0  503  502  0.00000000000E+00  0.00000000000E+00 -0.21236500842E+03  0.21236500842E+03  0.00000000000E+00 0.  1.
       23    1    1    2    0    0  0.42572307142E+02  0.76157316881E+02  0.61592673844E+03  0.62872357786E+03  0.91188003540E+02 0.  1.
       21    1    1    2  503  501 -0.64059588567E+02 -0.11116939192E+03 -0.18181248938E+03  0.22252650602E+03  0.00000000000E+00 0.  1.
        2    1    1    2  501    0  0.21487281425E+02  0.35012075035E+02  0.10731090332E+03  0.11490508532E+03  0.00000000000E+00 0.  1.
</event>
<event>
 5   0  0.4642300E+02  0.1040336E+03  0.7546771E-02  0.1272036E+00
       -1   -1    0    0    0  501  0.00000000000E+00  0.00000000000E+00  0.12416044477E+02  0.12416044477E+02  0.00000000000E+00 0.  1.
       21   -1    0    0  503  502  0.00000000000E+00  0.00000000000E+00 -0.12396064371E+04  0.12396064371E+04  0.00000000000E+00 0.  1.
       23    1    1    2    0    0 -0.78448513989E+01 -0.21004779907E+02 -0.29518248448E+03  0.30975908963E+03  0.91188003540E+02 0.  1.
       21    1    1    2  503  501 -0.43225674731E+00 -0.31520981943E+02 -0.53129234041E+02  0.61777622634E+02  0.00000000000E+00 0. -1.
       -1    1    1    2    0  502  0.82771081462E+01  0.52525761849E+02 -0.87887867406E+03  0.88048576927E+03  0.00000000000E+00 0.  1.
</event>
<event>
 5   0  0.4642300E+02  0.2355474E+03  0.7546771E-02  0.1122795E+00
       21   -1    0    0  503  502  0.00000000000E+00  0.00000000000E+00  0.11203665196E+03  0.11203665196E+03  0.00000000000E+00 0.  1.
       -1   -1    0    0    0  501  0.00000000000E+00  0.00000000000E+00 -0.96853210560E+03  0.96853210560E+03  0.00000000000E+00 0.  1.
       23    1    1    2    0    0 -0.13494627691E+03  0.16837386391E+03 -0.59399473573E+03  0.63851801366E+03  0.91188003540E+02 0.  1.
       21    1    1    2  503  501  0.46677114994E+02  0.31880073545E+02 -0.20934620713E+03  0.21684309210E+03  0.00000000000E+00 0.  1.
       -1    1    1    2    0  502  0.88269161915E+02 -0.20025393745E+03 -0.53154510784E+02  0.22520765180E+03  0.00000000000E+00 0.  1.
</event>
<event>
 5   0  0.4642300E+02  0.1641707E+03  0.7546771E-02  0.1184067E+00
       21   -1    0    0  503  502  0.00000000000E+00  0.00000000000E+00  0.59173950260E+03  0.59173950260E+03  0.00000000000E+00 0.  1.
        4   -1    0    0  502    0  0.00000000000E+00  0.00000000000E+00 -0.11386778050E+02  0.11386778050E+02  0.00000000000E+00 0. -1.
       23    1    1    2    0    0 -0.34552815601E+02 -0.34274163592E+02  0.39645705444E+03  0.40970973062E+03  0.91188003540E+02 0.  1.
       21    1    1    2  503  501  0.31102895164E+02  0.82092037922E+01  0.12196597889E+03  0.12613675563E+03  0.00000000000E+00 0. -1.
        4    1    1    2  501    0  0.34499204370E+01  0.26064959799E+02  0.61929691222E+02  0.67279794405E+02  0.00000000000E+00 0. -1.
</event>
<event>
 5   0  0.4642300E+02  0.1339506E+03  0.7546771E-02  0.1221709E+00
       21   -1    0    0  503  502  0.00000000000E+00  0.00000000000E+00  0.48159114819E+03  0.48159114819E+03  0.00000000000E+00 0.  1.
        1   -1    0    0  502    0  0.00000000000E+00  0.00000000000E+00 -0.30571689818E+02  0.30571689818E+02  0.00000000000E+00 0. -1.
       23    1    1    2    0    0  0.42018208362E+01  0.48629629566E+01  0.76835239291E+02  0.11941611991E+03  0.91188003540E+02 0. -1.
       21    1    1    2  503  501  0.26117935703E+02  0.24401488471E+02  0.32910039809E+03  0.33103572500E+03  0.00000000000E+00 0.  1.
        1    1    1    2  501    0 -0.30319756540E+02 -0.29264451428E+02  0.45083820991E+02  0.61710993098E+02  0.00000000000E+00 0. -1.
</event>
<event>
 5   0  0.4642300E+02  0.1121578E+03  0.7546771E-02  0.1256625E+00
       -2   -1    0    0    0  501  0.00000000000E+00  0.00000000000E+00  0.73054780998E+03  0.73054780998E+03  0.00000000000E+00 0.  1.
       21   -1    0    0  501  502  0.00000000000E+00  0.00000000000E+00 -0.30433331079E+02  0.30433331079E+02  0.00000000000E+00 0.  1.
       23    1    1    2    0    0  0.57338950514E+02  0.31246962531E+02  0.68156194455E+03  0.69072864727E+03  0.91188003540E+02 0.  1.
       21    1    1    2  503  502 -0.24835685301E+02 -0.70210408937E+01  0.14262677393E+02  0.29487798257E+02  0.00000000000E+00 0. -1.
       -2    1    1    2    0  503 -0.32503265212E+02 -0.24225921637E+02  0.42898569524E+01  0.40764695526E+02  0.00000000000E+00 0.  1.
</event>
<event>
 5   0  0.4642300E+02  0.1066014E+03  0.7546771E-02  0.1266996E+00
       21   -1    0    0  501  502  0.00000000000E+00  0.00000000000E+00  0.46132545121E+02  0.46132545121E+02  0.00000000000E+00 0. -1.
        1   -1    0    0  503    0  0.00000000000E+00  0.00000000000E+00 -0.22300488649E+03  0.22300488649E+03  0.00000000000E+00 0. -1.
       23    1    1    2    0    0 -0.10059481278E+02  0.43262239209E+02 -0.12660213372E+03  0.16222258399E+03  0.91188003540E+02 0. -1.
       21    1    1    2  503  502 -0.11869076364E+02  0.21933247382E+02 -0.19021257668E+02  0.31364798067E+02  0.00000000000E+00 0.  1.
        1    1    1    2  501    0  0.21928557642E+02 -0.65195486591E+02 -0.31248949975E+02  0.75550049548E+02  0.00000000000E+00 0. -1.
</event>
<event>
 5   0  0.4642300E+02  0.1868232E+03  0.7546771E-02  0.1161358E+00
        2   -1    0    0  502    0  0.00000000000E+00  0.00000000000E+00  0.85480178363E+03  0.85480178363E+03  0.00000000000E+00 0. -1.
       21   -1    0    0  503  502  0.00000000000E+00  0.00000000000E+00 -0.29514341182E+02  0.29514341182E+02  0.00000000000E+00 0.  1.
       23    1    1    2    0    0 -0.29078844606E+02  0.49851940406E+02  0.31685907311E+03  0.33473231001E+03  0.91188003540E+02 0.  0.
       21    1    1    2  503  501  0.21165137512E+02  0.25504278831E+01 -0.13328765661E+02  0.25142070765E+02  0.00000000000E+00 0.  1.
        2    1    1    2  501    0  0.79137070943E+01 -0.52402368289E+02  0.52175713500E+03  0.52444174404E+03  0.00000000000E+00 0. -1.
</event>
<event>
 5   0  0.4642300E+02  0.1325503E+03  0.7546771E-02  0.1223720E+00
       -2   -1    0    0    0  501  0.00000000000E+00  0.00000000000E+00  0.35392538214E+03  0.35392538214E+03  0.00000000000E+00 0.  1.
       21   -1    0    0  501  502  0.00000000000E+00  0.00000000000E+00 -0.38069478615E+02  0.38069478615E+02  0.00000000000E+00 0.  1.
       23    1    1    2    0    0 -0.23855682917E+01 -0.63129757257E+00  0.19395266620E+03  0.21433380086E+03  0.91188003540E+02 0.  0.
       21    1    1    2  503  502 -0.21525423857E+02 -0.29431455273E+02 -0.11976630241E+02  0.38379605308E+02  0.00000000000E+00 0.  1.
       -2    1    1    2    0  503  0.23910992148E+02  0.30062752846E+02  0.13387986757E+03  0.13928145459E+03  0.00000000000E+00 0.  1.
</event>
<event>
 5   0  0.4642300E+02  0.9593174E+02  0.7546771E-02  0.1289091E+00
        2   -1    0    0  501    0  0.00000000000E+00  0.00000000000E+00  0.16582449286E+02  0.16582449286E+02  0.00000000000E+00 0.  1.
       -1   -1    0    0    0  501  0.00000000000E+00  0.00000000000E+00 -0.95288643771E+03  0.95288643771E+03  0.00000000000E+00 0.  1.
       23    1    1    2    0    0 -0.18843793166E+02 -0.86910541815E+01 -0.56811205850E+03  0.57575792306E+03  0.91188003540E+02 0.  1.
        2    1    1    2  502    0  0.20530403810E+02 -0.25550434537E+02 -0.10554742498E+02  0.34434354572E+02  0.00000000000E+00 0.  1.
       -1    1    1    2    0  502 -0.16866106432E+01  0.34241488719E+02 -0.35763718742E+03  0.35927660936E+03  0.00000000000E+00 0.  1.
</event>
<event>
 5   0  0.4642300E+02  0.1089078E+03  0.7546771E-02  0.1262606E+00
        1   -1    0    0  502    0  0.00000000000E+00  0.00000000000E+00  0.12374805139E+04  0.12374805139E+04  0.00000000000E+00 0. -1.
       21   -1    0    0  503  502  0.00000000000E+00  0.00000000000E+00 -0.14225997200E+02  0.14225997200E+02  0.00000000000E+00 0.  1.
       23    1    1    2    0    0 -0.15766131037E+02 -0.55712179719E+02  0.86711674698E+03  0.87381870130E+03  0.91188003540E+02 0. -1.
       21    1    1    2  503  501  0.47588631543E+02 -0.90589574584E+01  0.90838546219E+02  0.10294845332E+03  0.00000000000E+00 0.  1.
        1    1    1    2  501    0 -0.31822500506E+02  0.64771137178E+02  0.26529922349E+03  0.27493935647E+03  0.00000000000E+00 0. -1.
</event>
<event>
 5   0  0.4642300E+02  0.1006335E+03  0.7546771E-02  0.1278969E+00
       21   -1    0    0  503  502  0.00000000000E+00  0.00000000000E+00  0.16795333049E+02  0.16795333049E+02  0.00000000000E+00 0. -1.
        1   -1    0    0  502    0  0.00000000000E+00  0.00000000000E+00 -0.12407992181E+04  0.12407992181E+04  0.00000000000E+00 0. -1.
       23    1    1    2    0    0 -0.26718324373E+02  0.27972625563E+02 -0.94100783508E+03  0.94620681370E+03  0.91188003540E+02 0. -1.
       21    1    1    2  503  501 -0.17393871984E+02 -0.11166393187E+02  0.35561783329E+01  0.20973352706E+02  0.00000000000E+00 0. -1.
        1    1    1    2  501    0  0.44112196357E+02 -0.16806232376E+02 -0.28655222831E+03  0.29041438474E+03  0.00000000000E+00 0. -1.
</event>
<event>
 5   0  0.4642300E+02  0.1245523E+03  0.7546771E-02  0.1235771E+00
       21   -1    0    0  501  502  0.00000000000E+00  0.00000000000E+00  0.57254628881E+02  0.57254628881E+02  0.00000000000E+00 0.  1.
        2   -1    0    0  503    0  0.00000000000E+00  0.00000000000E+00 -0.28664734825E+04  0.28664734825E+04  0.00000000000E+00 0. -1.
       23    1    1    2    0    0  0.18953122056E+01  0.91852815228E+01 -0.26338025057E+04  0.26353972855E+04  0.91188003540E+02 0. -1.
       21    1    1    2  503  502  0.16827509412E+02 -0.21783194983E+02  0.52511518600E+02  0.59288550685E+02  0.00000000000E+00 0.  1.
        2    1    1    2  501    0 -0.18722821617E+02  0.12597913460E+02 -0.22792786651E+03  0.22904227515E+03  0.00000000000E+00 0. -1.
</event>
<event>
 5   0  0.4642300E+02  0.1112046E+03  0.7546771E-02  0.1258355E+00
       21   -1    0    0  503  502  0.00000000000E+00  0.00000000000E+00  0.17725470101E+03  0.17725470101E+03  0.00000000000E+00 0. -1.
       21   -1    0    0  501  503  0.00000000000E+00  0.00000000000E+00 -0.63247547275E+03  0.63247547275E+03  0.00000000000E+00 0. -1.
       23    1    1    2    0    0 -0.69855047181E+02  0.13906305427E+02  0.24456634146E+02  0.11826449971E+03  0.91188003540E+02 0. -1.
        4    1    1    2  501    0  0.62989389345E+02  0.84710474809E+01 -0.58252816292E+03  0.58598505307E+03  0.00000000000E+00 0. -1.
       -4    1    1    2    0  502  0.68656578360E+01 -0.22377352907E+02  0.10285075704E+03  0.10548062099E+03  0.00000000000E+00 0.  1.
</event>
<event>
 5   0  0.4642300E+02  0.1692619E+03  0.7546771E-02  0.1178620E+00
        1   -1    0    0  502    0  0.00000000000E+00  0.00000000000E+00  0.49921427088E+03  0.49921427088E+03  0.00000000000E+00 0. -1.
       -1   -1    0    0    0  501  0.00000000000E+00  0.00000000000E+00 -0.69293202054E+02  0.69293202054E+02  0.00000000000E+00 0.  1.
       23    1    1    2    0    0 -0.84283154261E+01 -0.14983386423E+03  0.27491698483E+03  0.32621438335E+03  0.91188003540E+02 0. -1.
        3    1    1    2  502    0  0.48924968732E+02  0.11520144757E+03  0.74200919275E+02  0.14550189865E+03  0.00000000000E+00 0.  1.
       -3    1    1    2    0  501 -0.40496653306E+02  0.34632416661E+02  0.80803164727E+02  0.96791190935E+02  0.00000000000E+00 0. -1.
</event>
<event>
 5   0  0.4642300E+02  0.1249739E+03  0.7546771E-02  0.1235110E+00
       -1   -1    0    0    0  501  0.00000000000E+00  0.00000000000E+00  0.27873660227E+03  0.27873660227E+03  0.00000000000E+00 0.  1.
       21   -1    0    0  501  502  0.00000000000E+00  0.00000000000E+00 -0.22526018977E+02  0.22526018977E+02  0.00000000000E+00 0. -1.
       23    1    1    2    0    0 -0.42591403425E+02 -0.31794457009E+01  0.19139082282E+03  0.21626334773E+03  0.91188003540E+02 0. -1.
       21    1    1    2  503  502  0.25270222890E+02 -0.13709197563E+02  0.23558463418E+02  0.37168904495E+02  0.00000000000E+00 0. -1.
       -1    1    1    2    0  503  0.17321180535E+02  0.16888643264E+02  0.41261297054E+02  0.47830369024E+02  0.00000000000E+00 0.  1.
</event>
<event>
 5   0  0.4642300E+02  0.9332559E+02  0.7546771E-02  0.1294992E+00
       21   -1    0    0  501  502  0.00000000000E+00  0.00000000000E+00  0.39239501623E+02  0.39239501623E+02  0.00000000000E+00 0. -1.
        2   -1    0    0  503    0  0.00000000000E+00  0.00000000000E+00 -0.18373898148E+03  0.18373898148E+03  0.00000000000E+00 0.  1.
       23    1    1    2    0    0 -0.13384558945E+02  0.14831793539E+02 -0.32321672169E+02  0.98788010402E+02  0.91188003540E+02 0.  0.
       21    1    1    2  503  502 -0.96811204473E+01 -0.21322735546E+02 -0.83994493187E+02  0.87197809778E+02  0.00000000000E+00 0.  1.
        2    1    1    2  501    0  0.23065679392E+02  0.64909420068E+01 -0.28183314506E+02  0.36992662928E+02  0.00000000000E+00 0.  1.
</event>
<event>
 5   0  0.4642300E+02  0.1128180E+03  0.7546771E-02  0.1255439E+00
        2   -1    0    0  503    0  0.00000000000E+00  0.00000000000E+00  0.20529159700E+04  0.20529159700E+04  0.00000000000E+00 0. -1.
       21   -1    0    0  501  502  0.00000000000E+00  0.00000000000E+00 -0.21245074674E+03  0.21245074674E+03  0.00000000000E+00 0. -1.
       23    1    1    2    0    0  0.25154804290E+02 -0.23705171902E+02  0.40810695735E+03  0.41959652046E+03  0.91188003540E+02 0. -1.
       21    1    1    2  503  502 -0.45447670742E+02 -0.40258231010E+02  0.16330389196E+04  0.16341671668E+04  0.00000000000E+00 0. -1.
        2    1    1    2  501    0  0.20292866452E+02  0.63963402913E+02 -0.20068065370E+03  0.21160302954E+03  0.00000000000E+00 0. -1.
</event>
<event>
 5   0  0.4642300E+02  0.1055294E+03  0.7546771E-02  0.1269080E+00
       -1   -1    0    0    0  501  0.00000000000E+00  0.00000000000E+00  0.36841361179E+02  0.36841361179E+02  0.00000000000E+00 0.  1.
       -1   -1    0    0    0  502  0.00000000000E+00  0.00000000000E+00 -0.46731311121E+03  0.46731311121E+03  0.00000000000E+00 0.  1.
       23    1    1    2    0    0 -0.46383583427E+02  0.31516397771E+02 -0.41173345659E+03  0.42542262682E+03  0.91188003540E+02 0.  1.
       -1    1    1    2    0  501  0.45008414920E+02 -0.77921372385E+01  0.39858018873E+01  0.45851515057E+02  0.00000000000E+00 0.  1.
       -1    1    1    2    0  502  0.13751685064E+01 -0.23724260533E+02 -0.22724095319E+02  0.32880330508E+02  0.00000000000E+00 0.  1.
</event>
<event>
 5   0  0.4642300E+02  0.1244124E+03  0.7546771E-02  0.1235990E+00
        1   -1    0    0  502    0  0.00000000000E+00  0.00000000000E+00  0.93686539951E+03  0.93686539951E+03  0.00000000000E+00 0. -1.
       21   -1    0    0  503  502  0.00000000000E+00  0.00000000000E+00 -0.30950894903E+02  0.30950894903E+02  0.00000000000E+00 0.  1.
       23    1    1    2    0    0 -0.23005045193E+02  0.50039019051E+01  0.71738962094E+03  0.72354501682E+03  0.91188003540E+02 0. -1.
       21    1    1    2  503  501  0.23647336451E+02 -0.35009845933E+02 -0.10061718694E+02  0.43429529315E+02  0.00000000000E+00 0.  1.
        1    1    1    2  501    0 -0.64229125829E+00  0.30005944028E+02  0.19858660236E+03  0.20084174828E+03  0.00000000000E+00 0. -1.
</event>
<event>
 5   0  0.4642300E+02  0.9235281E+02  0.7546771E-02  0.1297252E+00
        1   -1    0    0  502    0  0.00000000000E+00  0.00000000000E+00  0.30179092864E+04  0.30179092864E+04  0.00000000000E+00 0. -1.
       21   -1    0    0  503  502  0.00000000000E+00  0.00000000000E+00 -0.15017464633E+02  0.15017464633E+02  0.00000000000E+00 0. -1.
       23    1    1    2    0    0 -0.13243340026E+02  0.67619616662E+01  0.29694631521E+04  0.29709001623E+04  0.91188003540E+02 0. -1.
       21    1    1    2  503  501  0.18424059304E+02  0.14327921283E+02  0.14677978048E+01  0.23385673391E+02  0.00000000000E+00 0. -1.
        1    1    1    2  501    0 -0.51807192790E+01 -0.21089882949E+02  0.31960871874E+02  0.38640915439E+02  0.00000000000E+00 0. -1.
</event>
<event>
 5   0  0.4642300E+02  0.9391842E+02  0.7546771E-02  0.1293631E+00
       21   -1    0    0  503  502  0.00000000000E+00  0.00000000000E+00  0.11865976974E+04  0.11865976974E+04  0.00000000000E+00 0. -1.
        1   -1    0    0  502    0  0.00000000000E+00  0.00000000000E+00 -0.63820483206E+02  0.63820483206E+02  0.00000000000E+00 0.  1.
       23    1    1    2    0    0 -0.41112918061E+00 -0.43157375613E+01 -0.29345690552E+01  0.91338153600E+02  0.91188003540E+02 0.  1.
       21    1    1    2  503  501 -0.89968901318E+01 -0.21044082268E+02  0.11312405853E+04  0.11314720763E+04  0.00000000000E+00 0. -1.
        1    1    1    2  501    0  0.94080193124E+01  0.25359819829E+02 -0.55288021333E+01  0.27607950706E+02  0.00000000000E+00 0.  1.
</event>
<event>
 5   0  0.4642300E+02  0.1040261E+03  0.7546771E-02  0.1272050E+00
        1   -1    0    0  503    0  0.00000000000E+00  0.00000000000E+00  0.12695496312E+03  0.12695496312E+03  0.00000000000E+00 0. -1.
       21   -1    0    0  501  502  0.00000000000E+00  0.00000000000E+00 -0.12058939137E+03  0.12058939137E+03  0.00000000000E+00 0.  1.
       23    1    1    2    0    0 -0.18390291275E+02 -0.35975668144E+02  0.52003949661E+02  0.11248161753E+03  0.91188003540E+02 0.  1.
       21    1    1    2  503  502  0.29858048648E+02 -0.25931868727E+02 -0.58683058171E+02  0.70764865584E+02  0.00000000000E+00 0.  1.
        1    1    1    2  501    0 -0.11467757373E+02  0.61907536871E+02  0.13044680269E+02  0.64297871380E+02  0.00000000000E+00 0. -1.
</event>
<event>
 5   0  0.4642300E+02  0.5248031E+03  0.7546771E-02  0.1007500E+00
        2   -1    0    0  501    0  0.00000000000E+00  0.00000000000E+00  0.67707368917E+03  0.67707368917E+03  0.00000000000E+00 0. -1.
        2   -1    0    0  502    0  0.00000000000E+00  0.00000000000E+00 -0.28887172490E+03  0.28887172490E+03  0.00000000000E+00 0. -1.
       23    1    1    2    0    0  0.11050311553E+03  0.21088606455E+03  0.41271034613E+03  0.48510715575E+03  0.91188003540E+02 0. -1.
        2    1    1    2  501    0 -0.17057146683E+02  0.14852298322E+02 -0.18639097858E+03  0.18775817935E+03  0.00000000000E+00 0. -1.
        2    1    1    2  502    0 -0.93445968849E+02 -0.22573836288E+03  0.16188259671E+03  0.29308007897E+03  0.00000000000E+00 0. -1.
</event>
<event>
 5   0  0.4642300E+02  0.1995162E+03  0.7546771E-02  0.1150148E+00
        1   -1    0    0  503    0  0.00000000000E+00  0.00000000000E+00  0.19572102592E+04  0.19572102592E+04  0.00000000000E+00 0. -1.
       -1   -1    0    0    0  501  0.00000000000E+00  0.00000000000E+00 -0.61765832086E+02  0.61765832086E+02  0.00000000000E+00 0.  1.
       23    1    1    2    0    0 -0.16209316357E+03 -0.18313177519E+02  0.54772181700E+03  0.57872619342E+03  0.91188003540E+02 0. -1.
       21    1    1    2  502  501  0.16005463377E+03  0.95101157782E+02  0.14737529693E+03  0.23744724498E+03  0.00000000000E+00 0.  1.
       21    1    1    2  503  502  0.20385297991E+01 -0.76787980263E+02  0.12003473132E+04  0.12028026529E+04  0.00000000000E+00 0. -1.
</event>
<event>
 5   0  0.4642300E+02  0.9635956E+02  0.7546771E-02  0.1288143E+00
        2   -1    0    0  502    0  0.00000000000E+00  0.00000000000E+00  0.12848917113E+04  0.12848917113E+04  0.00000000000E+00 0. -1.
       21   -1    0    0  503  502  0.00000000000E+00  0.00000000000E+00 -0.46414003845E+02  0.46414003845E+02  0.00000000000E+00 0.  1.
       23    1    1    2    0    0  0.27370012854E+02 -0.16046003769E+02  0.12205715046E+04  0.12243841888E+04  0.91188003540E+02 0. -1.
       21    1    1    2  503  501 -0.15900023934E+02 -0.18042365542E+02 -0.35291606822E+02  0.42706383920E+02  0.00000000000E+00 0.  1.
        2    1    1    2  501    0 -0.11469988920E+02  0.34088369311E+02  0.53197809677E+02  0.64215142471E+02  0.00000000000E+00 0. -1.
</event>
<event>
 5   0  0.4642300E+02  0.1295603E+03  0.7546771E-02  0.1228110E+00
       21   -1    0    0  501  502  0.00000000000E+00  0.00000000000E+00  0.13199061476E+02  0.13199061476E+02  0.00000000000E+00 0. -1.
        2   -1    0    0  503    0  0.00000000000E+00  0.00000000000E+00 -0.84193778266E+03  0.84193778266E+03  0.00000000000E+00 0. -1.
       23    1    1    2    0    0 -0.18630728252E+02 -0.20920999338E+02 -0.46590935630E+03  0.47557499148E+03  0.91188003540E+02 0.  0.
       21    1    1    2  503  502  0.40823432105E+02  0.89543193595E+01 -0.47675410007E+02  0.63400923995E+02  0.00000000000E+00 0. -1.
        2    1    1    2  501    0 -0.22192703853E+02  0.11966679978E+02 -0.31515395487E+03  0.31616092865E+03  0.00000000000E+00 0. -1.
</event>
<event>
 5   0  0.4642300E+02  0.9489744E+02  0.7546771E-02  0.1291407E+00
        1   -1    0    0  503    0  0.00000000000E+00  0.00000000000E+00  0.88529984509E+03  0.88529984509E+03  0.00000000000E+00 0. -1.
       21   -1    0    0  501  502  0.00000000000E+00  0.00000000000E+00 -0.46228817130E+02  0.46228817130E+02  0.00000000000E+00 0.  1.
       23    1    1    2    0    0  0.22493398259E+02  0.14874329652E+02  0.85198626242E+03  0.85727652598E+03  0.91188003540E+02 0. -1.
       21    1    1    2  503  502 -0.25729455005E+02  0.20595745241E+02  0.66399185656E+01  0.33619608794E+02  0.00000000000E+00 0. -1.
        1    1    1    2  501    0  0.32360567463E+01 -0.35470074893E+02 -0.19555153034E+02  0.40632527442E+02  0.00000000000E+00 0. -1.
</event>
<event>
 5   0  0.4642300E+02  0.2798814E+03  0.7546771E-02  0.1095754E+00
        2   -1    0    0  502    0  0.00000000000E+00  0.00000000000E+00  0.20703600010E+04  0.20703600010E+04  0.00000000000E+00 0. -1.
       21   -1    0    0  503  502  0.00000000000E+00  0.00000000000E+00 -0.94589323237E+01  0.94589323237E+01  0.00000000000E+00 0. -1.
       23    1    1    2    0    0  0.22285158556E+02  0.75937034083E+02  0.14695902812E+04  0.14745419316E+04  0.91188003540E+02 0. -1.
       21    1    1    2  503  501 -0.23961233986E+02  0.10590129282E+02  0.30625438140E+03  0.30737279922E+03  0.00000000000E+00 0. -1.
        2    1    1    2  501    0  0.16760754303E+01 -0.86527163365E+02  0.28505640603E+03  0.29790420247E+03  0.00000000000E+00 0. -1.
</event>
<event>
 5   0  0.4642300E+02  0.1144212E+03  0.7546771E-02  0.1252595E+00
       21   -1    0    0  503  502  0.00000000000E+00  0.00000000000E+00  0.71068922138E+03  0.71068922138E+03  0.00000000000E+00 0. -1.
        1   -1    0    0  502    0  0.00000000000E+00  0.00000000000E+00 -0.20210160027E+04  0.20210160027E+04  0.00000000000E+00 0. -1.
       23    1    1    2    0    0  0.11986391306E+01  0.15949579380E+02 -0.16724669339E+04  0.16750273798E+04  0.91188003540E+02 0. -1.
       21    1    1    2  503  501  0.20498002719E+02 -0.16647815545E+02  0.70882366011E+03  0.70931537345E+03  0.00000000000E+00 0. -1.
        1    1    1    2  501    0 -0.21696641850E+02  0.69823616511E+00 -0.34668350749E+03  0.34736247086E+03  0.00000000000E+00 0. -1.
</event>
<event>
 5   0  0.4642300E+02  0.9937962E+02  0.7546771E-02  0.1281606E+00
       21   -1    0    0  501  502  0.00000000000E+00  0.00000000000E+00  0.84637168782E+01  0.84637168782E+01  0.00000000000E+00 0.  1.
        1   -1    0    0  503    0  0.00000000000E+00  0.00000000000E+00 -0.93372724917E+03  0.93372724917E+03  0.00000000000E+00 0. -1.
       23    1    1    2    0    0  0.21130366648E+02 -0.15279268201E+01 -0.55917277722E+03  0.56695526607E+03  0.91188003540E+02 0.  0.
       21    1    1    2  503  502  0.28771339085E+02 -0.64064881017E+01 -0.94701616928E+02  0.99182807438E+02  0.00000000000E+00 0.  1.
        1    1    1    2  501    0 -0.49901705733E+02  0.79344149218E+01 -0.27138913815E+03  0.27605289254E+03  0.00000000000E+00 0. -1.
</event>
<event>
 5   0  0.4642300E+02  0.2804292E+03  0.7546771E-02  0.1095455E+00
       -2   -1    0    0    0  501  0.00000000000E+00  0.00000000000E+00  0.22628466708E+02  0.22628466708E+02  0.00000000000E+00 0.  1.
        2   -1    0    0  501    0  0.00000000000E+00  0.00000000000E+00 -0.14317086078E+04  0.14317086078E+04  0.00000000000E+00 0.  1.
       23    1    1    2    0    0  0.10076154289E+03  0.32866668341E+02 -0.43811868278E+03  0.45988731076E+03  0.91188003540E+02 0.  1.
        2    1    1    2  502    0  0.39250007450E+02 -0.19914755052E+02 -0.52511760392E+03  0.52695887743E+03  0.00000000000E+00 0.  1.
       -2    1    1    2    0  502 -0.14001155034E+03 -0.12951913290E+02 -0.44584385436E+03  0.46749088628E+03  0.00000000000E+00 0.  1.
</event>
<event>
 5   0  0.4642300E+02  0.2472084E+03  0.7546771E-02  0.1115082E+00
        4   -1    0    0  502    0  0.00000000000E+00  0.00000000000E+00  0.11663382999E+03  0.11663382999E+03  0.00000000000E+00 0. -1.
        1   -1    0    0  501    0  0.00000000000E+00  0.00000000000E+00 -0.17382369888E+04  0.17382369888E+04  0.00000000000E+00 0. -1.
       23    1    1    2    0    0  0.40069523080E+02  0.11023860840E+03 -0.12088623410E+04  0.12179579340E+04  0.91188003540E+02 0. -1.
        4    1    1    2  501    0  0.19236705804E+02 -0.37017934553E+02  0.10378878522E+03  0.11185924310E+03  0.00000000000E+00 0. -1.
        1    1    1    2  502    0 -0.59306228883E+02 -0.73220673851E+02 -0.51652960305E+03  0.52505364172E+03  0.00000000000E+00 0. -1.
</event>
<event>
 5   0  0.4642300E+02  0.1555276E+03  0.7546771E-02  0.1193841E+00
       21   -1    0    0  501  502  0.00000000000E+00  0.00000000000E+00  0.13219330745E+03  0.13219330745E+03  0.00000000000E+00 0.  1.
       -4   -1    0    0    0  501  0.00000000000E+00  0.00000000000E+00 -0.34966926427E+03  0.34966926427E+03  0.00000000000E+00 0.  1.
       23    1    1    2    0    0  0.20796985992E+02  0.42661793926E+02 -0.31820325488E+03  0.33439663080E+03  0.91188003540E+02 0.  1.
       21    1    1    2  503  502  0.20285245686E+01 -0.25564835172E+02  0.11339623970E+03  0.11625997973E+03  0.00000000000E+00 0.  1.
       -4    1    1    2    0  503 -0.22825510561E+02 -0.17096958754E+02 -0.12668941639E+02  0.31205961181E+02  0.00000000000E+00 0.  1.
</event>
<event>
 5   0  0.4642300E+02  0.9424481E+02  0.7546771E-02  0.1292886E+00
       -1   -1    0    0    0  501  0.00000000000E+00  0.00000000000E+00  0.35846374220E+02  0.35846374220E+02  0.00000000000E+00 0.  1.
        1   -1    0    0  503    0  0.00000000000E+00  0.00000000000E+00 -0.20684646757E+03  0.20684646757E+03  0.00000000000E+00 0. -1.
       23    1    1    2    0    0 -0.36571067536E+02  0.64179551608E+01 -0.15862216401E+03  0.18669460633E+03  0.91188003540E+02 0.  0.
       21    1    1    2  502  501  0.19308601835E+02  0.94543971388E+01 -0.21899289386E+02  0.30688541928E+02  0.00000000000E+00 0. -1.
       21    1    1    2  503  502  0.17262465701E+02 -0.15872352300E+02  0.95213600424E+01  0.25309693531E+02  0.00000000000E+00 0. -1.
</event>
<event>
 5   0  0.4642300E+02  0.2229042E+03  0.7546771E-02  0.1131736E+00
       21   -1    0    0  503  502  0.00000000000E+00  0.00000000000E+00  0.16621056065E+03  0.16621056065E+03  0.00000000000E+00 0. -1.
        1   -1    0    0  502    0  0.00000000000E+00  0.00000000000E+00 -0.89610618013E+03  0.89610618013E+03  0.00000000000E+00 0. -1.
       23    1    1    2    0    0 -0.54343549042E+02 -0.43326682680E+02 -0.81936878827E+03  0.82735173048E+03  0.91188003540E+02 0. -1.
       21    1    1    2  503  501  0.99443835397E+02  0.52552211631E+02  0.13121477262E+03  0.17282397953E+03  0.00000000000E+00 0. -1.
        1    1    1    2  501    0 -0.45100286355E+02 -0.92255289510E+01 -0.41741603838E+02  0.62141030766E+02  0.00000000000E+00 0. -1.
</event>
<event>
 5   0  0.4642300E+02  0.1090725E+03  0.7546771E-02  0.1262297E+00
       21   -1    0    0  501  502  0.00000000000E+00  0.00000000000E+00  0.87946809043E+03  0.87946809043E+03  0.00000000000E+00 0.  1.
       -1   -1    0    0    0  501  0.00000000000E+00  0.00000000000E+00 -0.52483336949E+02  0.52483336949E+02  0.00000000000E+00 0.  1.
       23    1    1    2    0    0  0.64504711664E+02  0.80966343877E+01  0.16253725535E+02  0.11316293076E+03  0.91188003540E+02 0.  1.
       21    1    1    2  503  502 -0.36222060696E+02  0.39485498241E+02  0.52635670267E+03  0.52907704609E+03  0.00000000000E+00 0.  1.
       -1    1    1    2    0  503 -0.28282650968E+02 -0.47582132628E+02  0.28437432528E+03  0.28971145053E+03  0.00000000000E+00 0.  1.
</event>
<event>
 5   0  0.4642300E+02  0.2083824E+03  0.7546771E-02  0.1142853E+00
       21   -1    0    0  503  502  0.00000000000E+00  0.00000000000E+00  0.13445577967E+03  0.13445577967E+03  0.00000000000E+00 0.  1.
       -4   -1    0    0    0  501  0.00000000000E+00  0.00000000000E+00 -0.11479200340E+03  0.11479200340E+03  0.00000000000E+00 0.  1.
       23    1    1    2    0    0  0.90068183081E+02 -0.24453288147E+02 -0.27871389293E+02  0.13342528709E+03  0.91188003540E+02 0.  1.
       21    1    1    2  503  501 -0.23303219136E+02 -0.69875560267E+01  0.32352949812E+02  0.40479369101E+02  0.00000000000E+00 0.  1.
       -4    1    1    2    0  502 -0.66764963945E+02  0.31440844174E+02  0.15182215753E+02  0.75343126881E+02  0.00000000000E+00 0.  1.
</event>
<event>
 5   0  0.4642300E+02  0.1183190E+03  0.7546771E-02  0.1245896E+00
       -2   -1    0    0    0  501  0.00000000000E+00  0.00000000000E+00  0.94628710129E+01  0.94628710129E+01  0.00000000000E+00 0.  1.
        2   -1    0    0  503    0  0.00000000000E+00  0.00000000000E+00 -0.24584204840E+04  0.24584204840E+04  0.00000000000E+00 0. -1.
       23    1    1    2    0    0 -0.16109913618E+02  0.41767556042E+02 -0.87349372001E+03  0.87938079859E+03  0.91188003540E+02 0.  1.
       21    1    1    2  502  501 -0.17681311861E+02 -0.87952935005E+02 -0.33760238477E+03  0.34931893417E+03  0.00000000000E+00 0.  1.
       21    1    1    2  503  502  0.33791225479E+02  0.46185378963E+02 -0.12378615082E+04  0.12391836223E+04  0.00000000000E+00 0. -1.
</event>
<event>
 5   0  0.4642300E+02  0.9459441E+02  0.7546771E-02  0.1292092E+00
       21   -1    0    0  501  502  0.00000000000E+00  0.00000000000E+00  0.34425698186E+02  0.34425698186E+02  0.00000000000E+00 0.  1.
        3   -1    0    0  503    0  0.00000000000E+00  0.00000000000E+00 -0.23152278999E+03  0.23152278999E+03  0.00000000000E+00 0. -1.
       23    1    1    2    0    0  0.33421156934E+01 -0.17480099151E+02 -0.17374428285E+03  0.19702550955E+03  0.91188003540E+02 0.  0.
       21    1    1    2  503  502 -0.25592397584E+02  0.18028049240E+02 -0.32257910969E+02  0.44950575008E+02  0.00000000000E+00 0.  1.
        3    1    1    2  501    0  0.22250281890E+02 -0.54795008909E+00  0.89051020072E+01  0.23972403619E+02  0.00000000000E+00 0. -1.
</event>
<event>
 5   0  0.4642300E+02  0.9823421E+02  0.7546771E-02  0.1284054E+00
        2   -1    0    0  502    0  0.00000000000E+00  0.00000000000E+00  0.55171741759E+03  0.55171741759E+03  0.00000000000E+00 0. -1.
       21   -1    0    0  503  502  0.00000000000E+00  0.00000000000E+00 -0.42563560866E+02  0.42563560866E+02  0.00000000000E+00 0.  1.
       23    1    1    2    0    0  0.27400982741E+02  0.25502617095E+02  0.23484356824E+03  0.25469187436E+03  0.91188003540E+02 0. -1.
       21    1    1    2  503  501 -0.55062022034E+02  0.26548399474E+02  0.21999146251E+01  0.61167666372E+02  0.00000000000E+00 0.  1.
        2    1    1    2  501    0  0.27661039292E+02 -0.52051016568E+02  0.27211037386E+03  0.27842143772E+03  0.00000000000E+00 0. -1.
</event>
<event>
 5   0  0.4642300E+02  0.3090429E+03  0.7546771E-02  0.1080806E+00
        2   -1    0    0  502    0  0.00000000000E+00  0.00000000000E+00  0.27497272553E+03  0.27497272553E+03  0.00000000000E+00 0. -1.
       21   -1    0    0  503  502  0.00000000000E+00  0.00000000000E+00 -0.86833645932E+02  0.86833645932E+02  0.00000000000E+00 0.  1.
       23    1    1    2    0    0  0.50096324044E+02 -0.12467074016E+03  0.56122723288E+02  0.17180642361E+03  0.91188003540E+02 0.  1.
       21    1    1    2  503  501 -0.44643611834E+01  0.22504804795E+02  0.11917060790E+02  0.25853686343E+02  0.00000000000E+00 0. -1.
        2    1    1    2  501    0 -0.45631962860E+02  0.10216593536E+03  0.12009929552E+03  0.16414626151E+03  0.00000000000E+00 0. -1.
</event>
<event>
 5   0  0.4642300E+02  0.9469289E+02  0.7546771E-02  0.1291869E+00
        2   -1    0    0  503    0  0.00000000000E+00  0.00000000000E+00  0.38901113379E+04  0.38901113379E+04  0.00000000000E+00 0. -1.
       21   -1    0    0  501  502  0.00000000000E+00  0.00000000000E+00 -0.11067978366E+02  0.11067978366E+02  0.00000000000E+00 0.  1.
       23    1    1    2    0    0  0.24517421465E+02 -0.62795647658E+01  0.36167093958E+04  0.36179472968E+04  0.91188003540E+02 0. -1.
       21    1    1    2  503  502 -0.34141581855E+02 -0.21056636324E+02  0.32633363634E+02  0.51710404823E+02  0.00000000000E+00 0.  1.
        2    1    1    2  501    0  0.96241603904E+01  0.27336201089E+02  0.22970060014E+03  0.23152161467E+03  0.00000000000E+00 0. -1.
</event>
<event>
 5   0  0.4642300E+02  0.9447952E+02  0.7546771E-02  0.1292353E+00
        3   -1    0    0  503    0  0.00000000000E+00  0.00000000000E+00  0.21007700813E+03  0.21007700813E+03  0.00000000000E+00 0. -1.
       21   -1    0    0  501  502  0.00000000000E+00  0.00000000000E+00 -0.84413696191E+02  0.84413696191E+02  0.00000000000E+00 0. -1.
       23    1    1    2    0    0  0.31036936229E+02  0.26245553247E+02  0.64216029086E+02  0.11870581644E+03  0.91188003540E+02 0. -1.
       21    1    1    2  503  502 -0.68791507021E+01 -0.22634564307E+02  0.11474407567E+03  0.11715736902E+03  0.00000000000E+00 0. -1.
        3    1    1    2  501    0 -0.24157785526E+02 -0.36109889404E+01 -0.53296792815E+02  0.58627518855E+02  0.00000000000E+00 0. -1.
</event>
<event>
 5   0  0.4642300E+02  0.6103351E+03  0.7546771E-02  0.9884193E-01
       21   -1    0    0  501  502  0.00000000000E+00  0.00000000000E+00  0.17557935882E+03  0.17557935882E+03  0.00000000000E+00 0.  1.
        1   -1    0    0  503    0  0.00000000000E+00  0.00000000000E+00 -0.22586319040E+04  0.22586319040E+04  0.00000000000E+00 0.  1.
       23    1    1    2    0    0  0.76586659336E-01 -0.33807298188E+03 -0.17961237160E+04  0.18299368848E+04  0.91188003540E+02 0.  1.
       21    1    1    2  503  502  0.10144600649E+03  0.17104318373E+03  0.58575843616E+02  0.20731182405E+03  0.00000000000E+00 0.  1.
        1    1    1    2  501    0 -0.10152259315E+03  0.16702979814E+03 -0.34550467278E+03  0.39696255403E+03  0.00000000000E+00 0.  1.
</event>
<event>
 5   0  0.4642300E+02  0.9303680E+02  0.7546771E-02  0.1295660E+00
       21   -1    0    0  501  502  0.00000000000E+00  0.00000000000E+00  0.35682209033E+01  0.35682209033E+01  0.00000000000E+00 0. -1.
        2   -1    0    0  503    0  0.00000000000E+00  0.00000000000E+00 -0.18975358101E+04  0.18975358101E+04  0.00000000000E+00 0. -1.
       23    1    1    2    0    0 -0.28432604175E+01 -0.18580161729E+02 -0.16184862100E+04  0.16211619816E+04  0.91188003540E+02 0. -1.
       21    1    1    2  503  502  0.23916161458E+02  0.67964935175E+01 -0.11520681651E+03  0.11785917730E+03  0.00000000000E+00 0.  1.
        2    1    1    2  501    0 -0.21072901041E+02  0.11783668211E+02 -0.16027456263E+03  0.16208287207E+03  0.00000000000E+00 0. -1.
</event>
<event>
 5   0  0.4642300E+02  0.1455134E+03  0.7546771E-02  0.1206097E+00
       -1   -1    0    0    0  501  0.00000000000E+00  0.00000000000E+00  0.12705865206E+04  0.12705865206E+04  0.00000000000E+00 0.  1.
       21   -1    0    0  503  502  0.00000000000E+00  0.00000000000E+00 -0.25834507565E+02  0.25834507565E+02  0.00000000000E+00 0.  1.
       23    1    1    2    0    0 -0.62087345339E+02  0.83109122033E+02  0.53283789335E+03  0.55044839648E+03  0.91188003540E+02 0.  1.
       21    1    1    2  503  501 -0.30305188417E+02 -0.94766188321E+01  0.51751553881E+03  0.51848871122E+03  0.00000000000E+00 0.  1.
       -1    1    1    2    0  502  0.92392533756E+02 -0.73632503201E+02  0.19439858088E+03  0.22748392046E+03  0.00000000000E+00 0.  1.
</event>
<event>
 5   0  0.4642300E+02  0.9483144E+02  0.7546771E-02  0.1291556E+00
        1   -1    0    0  503    0  0.00000000000E+00  0.00000000000E+00  0.17284864165E+04  0.17284864165E+04  0.00000000000E+00 0.  1.
       21   -1    0    0  501  502  0.00000000000E+00  0.00000000000E+00 -0.43404775712E+01  0.43404775712E+01  0.00000000000E+00 0. -1.
       23    1    1    2    0    0  0.98802757295E+01 -0.33520690310E+02  0.63165436082E+03  0.63915861886E+03  0.91188003540E+02 0. -1.
       21    1    1    2  503  502  0.11454227821E+02  0.23350937559E+02  0.68319215199E+03  0.68368704987E+03  0.00000000000E+00 0.  1.
        1    1    1    2  501    0 -0.21334503551E+02  0.10169752751E+02  0.40929942616E+03  0.40998122539E+03  0.00000000000E+00 0.  1.
</event>
<event>
 5   0  0.4642300E+02  0.1710077E+03  0.7546771E-02  0.1176801E+00
        1   -1    0    0  501    0  0.00000000000E+00  0.00000000000E+00  0.14421901109E+04  0.14421901109E+04  0.00000000000E+00 0.  1.
       -1   -1    0    0    0  501  0.00000000000E+00  0.00000000000E+00 -0.19808318177E+02  0.19808318177E+02  0.00000000000E+00 0.  1.
       23    1    1    2    0    0 -0.53869606882E+02  0.30359902068E+02  0.15130922370E+03  0.18717209024E+03  0.91188003540E+02 0.  1.
        1    1    1    2  502    0  0.17458378957E+02 -0.25369037694E+02  0.10687060868E+04  0.10691497009E+04  0.00000000000E+00 0.  1.
       -1    1    1    2    0  502  0.36411227925E+02 -0.49908643740E+01  0.20236648224E+03  0.20567663791E+03  0.00000000000E+00 0.  1.
</event>
<event>
 5   0  0.4642300E+02  0.1177662E+03  0.7546771E-02  0.1246828E+00
       21   -1    0    0  503  502  0.00000000000E+00  0.00000000000E+00  0.50953123770E+02  0.50953123770E+02  0.00000000000E+00 0.  1.
       -3   -1    0    0    0  501  0.00000000000E+00  0.00000000000E+00 -0.34287834364E+03  0.34287834364E+03  0.00000000000E+00 0.  1.
       23    1    1    2    0    0 -0.54984394889E+02 -0.54685666229E+02 -0.13344745288E+03  0.17926873805E+03  0.91188003540E+02 0.  1.
       21    1    1    2  503  501  0.27939996387E+02  0.68870079800E+02 -0.26198542071E+02  0.78804155324E+02  0.00000000000E+00 0.  1.
       -3    1    1    2    0  502  0.27044398502E+02 -0.14184413571E+02 -0.13227922492E+03  0.13575857404E+03  0.00000000000E+00 0.  1.
</event>
<event>
 5   0  0.4642300E+02  0.1236076E+03  0.7546771E-02  0.1237262E+00
       21   -1    0    0  501  502  0.00000000000E+00  0.00000000000E+00  0.24355696506E+02  0.24355696506E+02  0.00000000000E+00 0. -1.
        2   -1    0    0  503    0  0.00000000000E+00  0.00000000000E+00 -0.12027862595E+04  0.12027862595E+04  0.00000000000E+00 0. -1.
       23    1    1    2    0    0  0.34084320756E+01 -0.53524283756E+01 -0.10357864249E+04  0.10398120195E+04  0.91188003540E+02 0. -1.
       21    1    1    2  503  502 -0.29902393184E+02  0.10781468553E+02  0.92038891432E+01  0.33092367061E+02  0.00000000000E+00 0. -1.
        2    1    1    2  501    0  0.26493961109E+02 -0.54290401771E+01 -0.15184802720E+03  0.15423756941E+03  0.00000000000E+00 0. -1.
</event>
<event>
 5   0  0.4642300E+02  0.1267532E+03  0.7546771E-02  0.1232354E+00
       21   -1    0    0  503  502  0.00000000000E+00  0.00000000000E+00  0.66516207658E+03  0.66516207658E+03  0.00000000000E+00 0.  1.
        2   -1    0    0  502    0  0.00000000000E+00  0.00000000000E+00 -0.29185551291E+02  0.29185551291E+02  0.00000000000E+00 0. -1.
       23    1    1    2    0    0  0.72764953477E+01 -0.27828619671E+02  0.85701922333E+02  0.12840346934E+03  0.91188003540E+02 0. -1.
       21    1    1    2  503  501 -0.25796319290E+02  0.28929178297E+01  0.52569220747E+03  0.52633270472E+03  0.00000000000E+00 0.  1.
        2    1    1    2  501    0  0.18519823942E+02  0.24935701841E+02  0.24582395484E+02  0.39611453810E+02  0.00000000000E+00 0. -1.
</event>
<event>
 5   0  0.4642300E+02  0.9984256E+02  0.7546771E-02  0.1280627E+00
       -1   -1    0    0    0  501  0.00000000000E+00  0.00000000000E+00  0.45766283117E+03  0.45766283117E+03  0.00000000000E+00 0.  1.
       21   -1    0    0  503  502  0.00000000000E+00  0.00000000000E+00 -0.35746672240E+02  0.35746672240E+02  0.00000000000E+00 0.  1.
       23    1    1    2    0    0  0.18110881422E+02  0.16761720367E+02  0.31040303256E+03  0.32445994192E+03  0.91188003540E+02 0.  1.
       21    1    1    2  503  501 -0.49025363097E+02 -0.56739898498E+02  0.78646604853E+02  0.10866549942E+03  0.00000000000E+00 0.  1.
       -1    1    1    2    0  502  0.30914481675E+02  0.39978178131E+02  0.32866521512E+02  0.60284062075E+02  0.00000000000E+00 0.  1.
</event>
<event>
 5   0  0.4642300E+02  0.1177012E+03  0.7546771E-02  0.1246938E+00
        2   -1    0    0  502    0  0.00000000000E+00  0.00000000000E+00  0.70483020386E+03  0.70483020386E+03  0.00000000000E+00 0. -1.
        3   -1    0    0  501    0  0.00000000000E+00  0.00000000000E+00 -0.14490645512E+03  0.14490645512E+03  0.00000000000E+00 0. -1.
       23    1    1    2    0    0  0.10647570934E+02  0.77651918388E+02 -0.10182356893E+03  0.15756421667E+03  0.91188003540E+02 0. -1.
        2    1    1    2  501    0 -0.36096047096E+02 -0.12910493921E+02  0.59344707700E+03  0.59468398219E+03  0.00000000000E+00 0. -1.
        3    1    1    2  502    0  0.25448476163E+02 -0.64741424466E+02  0.68300240664E+02  0.97488460115E+02  0.00000000000E+00 0. -1.
</event>
<event>
 5   0  0.4642300E+02  0.9679492E+02  0.7546771E-02  0.1287184E+00
       21   -1    0    0  501  502  0.00000000000E+00  0.00000000000E+00  0.64000131758E+02  0.64000131758E+02  0.00000000000E+00 0.  1.
       21   -1    0    0  502  503  0.00000000000E+00  0.00000000000E+00 -0.94450424347E+02  0.94450424347E+02  0.00000000000E+00 0. -1.
       23    1    1    2    0    0  0.13497597422E+02 -0.11911074989E+02 -0.26742711561E+02  0.96718578643E+02  0.91188003540E+02 0.  1.
        2    1    1    2  501    0  0.22053570514E+02  0.35974047162E+01 -0.10344454270E+02  0.24623343137E+02  0.00000000000E+00 0.  1.
       -2    1    1    2    0  503 -0.35551167935E+02  0.83136702732E+01  0.66368732417E+01  0.37108634324E+02  0.00000000000E+00 0. -1.
</event>
<event>
 5   0  0.4642300E+02  0.3580321E+03  0.7546771E-02  0.1059366E+00
        1   -1    0    0  503    0  0.00000000000E+00  0.00000000000E+00  0.19932297319E+03  0.19932297319E+03  0.00000000000E+00 0. -1.
       21   -1    0    0  501  502  0.00000000000E+00  0.00000000000E+00 -0.30964678910E+03  0.30964678910E+03  0.00000000000E+00 0. -1.
       23    1    1    2    0    0  0.70226387243E+02 -0.14084437810E+03  0.18885874996E+02  0.18286829296E+03  0.91188003540E+02 0. -1.
       21    1    1    2  503  502  0.87666917544E+02  0.10538503157E+03 -0.49859428536E+02  0.14586794001E+03  0.00000000000E+00 0. -1.
        1    1    1    2  501    0 -0.15789330479E+03  0.35459346532E+02 -0.79350262371E+02  0.18023352932E+03  0.00000000000E+00 0. -1.
</event>
<event>
 5   0  0.4642300E+02  0.1042351E+03  0.7546771E-02  0.1271634E+00
       21   -1    0    0  503  502  0.00000000000E+00  0.00000000000E+00  0.38953477740E+02  0.38953477740E+02  0.00000000000E+00 0.  1.
       -1   -1    0    0    0  501  0.00000000000E+00  0.00000000000E+00 -0.59417251362E+03  0.59417251362E+03  0.00000000000E+00 0.  1.
       23    1    1    2    0    0  0.47684131935E+02 -0.18747509949E+02 -0.51650489137E+03  0.52698937405E+03  0.91188003540E+02 0.  1.
       21    1    1    2  503  501 -0.54738863544E+02 -0.15418920036E+02 -0.42569671451E+02  0.71037055152E+02  0.00000000000E+00 0.  1.
       -1    1    1    2    0  502  0.70547316094E+01  0.34166429985E+02  0.38555269338E+01  0.35099562162E+02  0.00000000000E+00 0.  1.
</event>
<event>
 5   0  0.4642300E+02  0.1038964E+03  0.7546771E-02  0.1272309E+00
        2   -1    0    0  502    0  0.00000000000E+00  0.00000000000E+00  0.15978867400E+04  0.15978867400E+04  0.00000000000E+00 0. -1.
       21   -1    0    0  503  502  0.00000000000E+00  0.00000000000E+00 -0.15249629142E+03  0.15249629142E+03  0.00000000000E+00 0.  1.
       23    1    1    2    0    0  0.18146337426E+01 -0.59327235380E+02  0.14306542434E+04  0.14347856390E+04  0.91188003540E+02 0. -1.
       21    1    1    2  503  501  0.15792132693E+02  0.22873953267E+02 -0.14662454574E+03  0.14923594274E+03  0.00000000000E+00 0.  1.
        2    1    1    2  501    0 -0.17606766435E+02  0.36453282113E+02  0.16136075089E+03  0.16636144965E+03  0.00000000000E+00 0. -1.
</event>
<event>
 5   0  0.4642300E+02  0.9329973E+02  0.7546771E-02  0.1295052E+00
       21   -1    0    0  501  502  0.00000000000E+00  0.00000000000E+00  0.78981539661E+01  0.78981539661E+01  0.00000000000E+00 0. -1.
        2   -1    0    0  503    0  0.00000000000E+00  0.00000000000E+00 -0.19049038912E+04  0.19049038912E+04  0.00000000000E+00 0. -1.
       23    1    1    2    0    0  0.11224810456E+02  0.16222960997E+02 -0.17973494832E+04  0.17997693179E+04  0.91188003540E+02 0. -1.
       21    1    1    2  503  502 -0.19340519262E+02  0.10475018995E+02 -0.64507337146E+02  0.68154077310E+02  0.00000000000E+00 0.  1.
        2    1    1    2  501    0  0.81157088060E+01 -0.26697979992E+02 -0.35148916874E+02  0.44878649963E+02  0.00000000000E+00 0. -1.
</event>
<event>
 5   0  0.4642300E+02  0.9320430E+02  0.7546771E-02  0.1295272E+00
        2   -1    0    0  503    0  0.00000000000E+00  0.00000000000E+00  0.21986532947E+03  0.21986532947E+03  0.00000000000E+00 0. -1.
       21   -1    0    0  501  502  0.00000000000E+00  0.00000000000E+00 -0.87564356173E+02  0.87564356173E+02  0.00000000000E+00 0.  1.
       23    1    1    2    0    0 -0.57961710432E+01  0.16613384897E+02  0.19367051121E+03  0.21478621711E+03  0.91188003540E+02 0. -1.
       21    1    1    2  503  502 -0.12998549777E+02 -0.33267613700E+02 -0.56834093927E+02  0.67125335382E+02  0.00000000000E+00 0.  1.
        2    1    1    2  501    0  0.18794720820E+02  0.16654228804E+02 -0.45354439842E+01  0.25518133159E+02  0.00000000000E+00 0. -1.
</event>
<event>
 5   0  0.4642300E+02  0.9433533E+02  0.7546771E-02  0.1292680E+00
       21   -1    0    0  501  502  0.00000000000E+00  0.00000000000E+00  0.43959170304E+01  0.43959170304E+01  0.00000000000E+00 0. -1.
        2   -1    0    0  503    0  0.00000000000E+00  0.00000000000E+00 -0.31288210931E+04  0.31288210931E+04  0.00000000000E+00 0. -1.
       23    1    1    2    0    0  0.46193534211E+01 -0.43357542516E-01 -0.19526575838E+04  0.19547910968E+04  0.91188003540E+02 0. -1.
       21    1    1    2  503  502  0.82903979697E+01  0.21092352369E+02 -0.11275749675E+04  0.11278026979E+04  0.00000000000E+00 0. -1.
        2    1    1    2  501    0 -0.12909751391E+02 -0.21048994826E+02 -0.44192624731E+02  0.50623215473E+02  0.00000000000E+00 0. -1.
</event>
<event>
 5   0  0.4642300E+02  0.9485441E+02  0.7546771E-02  0.1291504E+00
       21   -1    0    0  501  502  0.00000000000E+00  0.00000000000E+00  0.38206448746E+02  0.38206448746E+02  0.00000000000E+00 0. -1.
        2   -1    0    0  503    0  0.00000000000E+00  0.00000000000E+00 -0.18705926226E+03  0.18705926226E+03  0.00000000000E+00 0.  1.
       23    1    1    2    0    0 -0.32027647355E+01 -0.45703330105E+02 -0.94406275753E+02  0.13902103789E+03  0.91188003540E+02 0.  0.
       21    1    1    2  503  502  0.17764800191E+00  0.24049049228E+02 -0.59174332710E+02  0.63874799251E+02  0.00000000000E+00 0.  1.
        2    1    1    2  501    0  0.30251167336E+01  0.21654280877E+02  0.47277949522E+01  0.22369873863E+02  0.00000000000E+00 0.  1.
</event>
<event>
 5   0  0.4642300E+02  0.2236052E+03  0.7546771E-02  0.1131223E+00
       21   -1    0    0  501  502  0.00000000000E+00  0.00000000000E+00  0.58148197861E+02  0.58148197861E+02  0.00000000000E+00 0. -1.
       -1   -1    0    0    0  501  0.00000000000E+00  0.00000000000E+00 -0.21496483285E+03  0.21496483285E+03  0.00000000000E+00 0.  1.
       23    1    1    2    0    0 -0.44766526788E+02 -0.76582312863E+02 -0.67866339361E+02  0.14418732459E+03  0.91188003540E+02 0. -1.
       21    1    1    2  503  502  0.58145071497E+01  0.35091111384E+02 -0.25967435346E+02  0.44039780767E+02  0.00000000000E+00 0.  1.
       -1    1    1    2    0  503  0.38952019638E+02  0.41491201478E+02 -0.62982860280E+02  0.84885925353E+02  0.00000000000E+00 0.  1.
</event>
<event>
 5   0  0.4642300E+02  0.9895540E+02  0.7546771E-02  0.1282508E+00
       21   -1    0    0  501  502  0.00000000000E+00  0.00000000000E+00  0.47280253804E+03  0.47280253804E+03  0.00000000000E+00 0.  1.
        4   -1    0    0  503    0  0.00000000000E+00  0.00000000000E+00 -0.70925916367E+02  0.70925916367E+02  0.00000000000E+00 0. -1.
       23    1    1    2    0    0  0.28926631045E+02  0.19558245770E+02  0.36297935023E+03  0.37588367302E+03  0.91188003540E+02 0.  1.
       21    1    1    2  503  502 -0.28335351438E+02  0.33156512248E+02 -0.48844827482E+02  0.65483307929E+02  0.00000000000E+00 0. -1.
        4    1    1    2  501    0 -0.59127960642E+00 -0.52714758018E+02  0.87742098926E+02  0.10236147346E+03  0.00000000000E+00 0. -1.
</event>
<event>
 5   0  0.4642300E+02  0.1118273E+03  0.7546771E-02  0.1257223E+00
       -1   -1    0    0    0  501  0.00000000000E+00  0.00000000000E+00  0.21113587480E+03  0.21113587480E+03  0.00000000000E+00 0.  1.
        1   -1    0    0  502    0  0.00000000000E+00  0.00000000000E+00 -0.82080111119E+02  0.82080111119E+02  0.00000000000E+00 0. -1.
       23    1    1    2    0    0  0.47978648080E+02  0.16689942368E+02  0.91847129907E+02  0.13903831166E+03  0.91188003540E+02 0.  1.
       21    1    1    2  502  503  0.23396989186E+02  0.57398356869E+00 -0.40804268133E+02  0.47039737010E+02  0.00000000000E+00 0.  1.
       21    1    1    2  503  501 -0.71375637266E+02 -0.17263925936E+02  0.78012901910E+02  0.10713793725E+03  0.00000000000E+00 0. -1.
</event>
<event>
 5   0  0.4642300E+02  0.9948245E+02  0.7546771E-02  0.1281388E+00
       21   -1    0    0  501  502  0.00000000000E+00  0.00000000000E+00  0.59822182654E+02  0.59822182654E+02  0.00000000000E+00 0. -1.
        2   -1    0    0  503    0  0.00000000000E+00  0.00000000000E+00 -0.98415525872E+03  0.98415525872E+03  0.00000000000E+00 0. -1.
       23    1    1    2    0    0 -0.29680021501E+02 -0.13801585899E+02 -0.82959055322E+03  0.83522878628E+03  0.91188003540E+02 0.  0.
       21    1    1    2  503  502  0.72089098353E+02  0.72664296778E+02 -0.89573183803E+02  0.13601578358E+03  0.00000000000E+00 0. -1.
        2    1    1    2  501    0 -0.42409076852E+02 -0.58862710879E+02 -0.51693390412E+01  0.72732871507E+02  0.00000000000E+00 0. -1.
</event>
<event>
 5   0  0.4642300E+02  0.1058019E+03  0.7546771E-02  0.1268548E+00
        1   -1    0    0  502    0  0.00000000000E+00  0.00000000000E+00  0.84339678783E+02  0.84339678783E+02  0.00000000000E+00 0. -1.
       21   -1    0    0  503  502  0.00000000000E+00  0.00000000000E+00 -0.40549535671E+03  0.40549535671E+03  0.00000000000E+00 0. -1.
       23    1    1    2    0    0 -0.17835903509E+02  0.50602998805E+02  0.48214291096E+02  0.11626974154E+03  0.91188003540E+02 0. -1.
       21    1    1    2  503  501  0.17783490234E+02 -0.27848597889E+02 -0.21248476372E+03  0.21503853548E+03  0.00000000000E+00 0. -1.
        1    1    1    2  501    0  0.52413275495E-01 -0.22754400916E+02 -0.15688520530E+03  0.15852675847E+03  0.00000000000E+00 0. -1.
</event>
<event>
 5   0  0.4642300E+02  0.1244091E+03  0.7546771E-02  0.1235996E+00
       21   -1    0    0  501  502  0.00000000000E+00  0.00000000000E+00  0.22461908510E+04  0.22461908510E+04  0.00000000000E+00 0. -1.
       21   -1    0    0  502  503  0.00000000000E+00  0.00000000000E+00 -0.25977201516E+02  0.25977201516E+02  0.00000000000E+00 0.  1.
       23    1    1    2    0    0 -0.58069324306E+02 -0.41854070610E+02  0.10526549640E+04  0.10590191381E+04  0.91188003540E+02 0.  0.
        4    1    1    2  501    0  0.66177573385E+02  0.64366613712E+02  0.11817357433E+04  0.11853361967E+04  0.00000000000E+00 0. -1.
       -4    1    1    2    0  503 -0.81082490788E+01 -0.22512543102E+02 -0.14177057803E+02  0.27812717738E+02  0.00000000000E+00 0.  1.
</event>
<event>
 5   0  0.4642300E+02  0.9618549E+02  0.7546771E-02  0.1288528E+00
       21   -1    0    0  503  502  0.00000000000E+00  0.00000000000E+00  0.56438293287E+02  0.56438293287E+02  0.00000000000E+00 0.  1.
       21   -1    0    0  501  503  0.00000000000E+00  0.00000000000E+00 -0.32263240760E+03  0.32263240760E+03  0.00000000000E+00 0.  1.
       23    1    1    2    0    0  0.23142295092E+02 -0.11317888969E+02 -0.27631137866E+03  0.29210766919E+03  0.91188003540E+02 0.  1.
        2    1    1    2  501    0 -0.13635974123E+02 -0.18016608875E+02 -0.29247207317E+02  0.36958586573E+02  0.00000000000E+00 0. -1.
       -2    1    1    2    0  502 -0.95063209689E+01  0.29334497844E+02  0.39364471668E+02  0.50004445121E+02  0.00000000000E+00 0.  1.
</event>
<event>
 5   0  0.4642300E+02  0.1037678E+03  0.7546771E-02  0.1272567E+00
       -4   -1    0    0    0  501  0.00000000000E+00  0.00000000000E+00  0.20040163596E+03  0.20040163596E+03  0.00000000000E+00 0. -1.
        2   -1    0    0  501    0  0.00000000000E+00  0.00000000000E+00 -0.30836809804E+04  0.30836809804E+04  0.00000000000E+00 0. -1.
       23    1    1    2    0    0 -0.39710180158E+02  0.14839033738E+02 -0.22318123947E+04  0.22340767473E+04  0.91188003540E+02 0. -1.
        2    1    1    2  502    0  0.13788254366E+02 -0.85083075843E+02 -0.84142284306E+03  0.84582601437E+03  0.00000000000E+00 0. -1.
       -4    1    1    2    0  502  0.25921925792E+02  0.70244042105E+02  0.18995589332E+03  0.20417985477E+03  0.00000000000E+00 0. -1.
</event>
<event>
 5   0  0.4642300E+02  0.1382483E+03  0.7546771E-02  0.1215706E+00
       21   -1    0    0  501  502  0.00000000000E+00  0.00000000000E+00  0.51771118262E+02  0.51771118262E+02  0.00000000000E+00 0.  1.
        1   -1    0    0  503    0  0.00000000000E+00  0.00000000000E+00 -0.22384318690E+04  0.22384318690E+04  0.00000000000E+00 0. -1.
       23    1    1    2    0    0  0.31455053142E+02  0.24950296966E+02 -0.15396409354E+04  0.15428614324E+04  0.91188003540E+02 0. -1.
       21    1    1    2  503  502  0.48403026682E+01 -0.37146544143E+02  0.42560945188E+02  0.56698574294E+02  0.00000000000E+00 0.  1.
        1    1    1    2  501    0 -0.36295355810E+02  0.12196247177E+02 -0.68958076057E+03  0.69064298059E+03  0.00000000000E+00 0. -1.
</event>
<event>
 5   0  0.4642300E+02  0.1207553E+03  0.7546771E-02  0.1241856E+00
        1   -1    0    0  503    0  0.00000000000E+00  0.00000000000E+00  0.67517113813E+03  0.67517113813E+03  0.00000000000E+00 0. -1.
       21   -1    0    0  501  502  0.00000000000E+00  0.00000000000E+00 -0.35207733525E+02  0.35207733525E+02  0.00000000000E+00 0.  1.
       23    1    1    2    0    0 -0.62845150118E+01  0.81249219767E+02  0.93346606853E+02  0.15384983537E+03  0.91188003540E+02 0.  1.
       21    1    1    2  503  502  0.22223004378E+02 -0.10361107183E+02  0.65161310841E+02  0.69621913907E+02  0.00000000000E+00 0.  1.
        1    1    1    2  501    0 -0.15938489366E+02 -0.70888112584E+02  0.48145548691E+03  0.48690712239E+03  0.00000000000E+00 0. -1.
</event>
<event>
 5   0  0.4642300E+02  0.1012345E+03  0.7546771E-02  0.1277721E+00
        2   -1    0    0  503    0  0.00000000000E+00  0.00000000000E+00  0.42428181136E+03  0.42428181136E+03  0.00000000000E+00 0. -1.
       -2   -1    0    0    0  501  0.00000000000E+00  0.00000000000E+00 -0.35003535211E+02  0.35003535211E+02  0.00000000000E+00 0.  1.
       23    1    1    2    0    0 -0.39183138004E+02  0.45389589120E+02  0.22087226706E+03  0.24636424953E+03  0.91188003540E+02 0.  0.
       21    1    1    2  502  501  0.36711906285E+02 -0.21915597345E+02 -0.11415294323E+00  0.42755941119E+02  0.00000000000E+00 0.  1.
       21    1    1    2  503  502  0.24712317188E+01 -0.23473991775E+02  0.16852016203E+03  0.17016515591E+03  0.00000000000E+00 0. -1.
</event>
<event>
 5   0  0.4642300E+02  0.2501348E+03  0.7546771E-02  0.1113220E+00
        1   -1    0    0  501    0  0.00000000000E+00  0.00000000000E+00  0.37514659716E+03  0.37514659716E+03  0.00000000000E+00 0. -1.
        2   -1    0    0  502    0  0.00000000000E+00  0.00000000000E+00 -0.13702410809E+03  0.13702410809E+03  0.00000000000E+00 0. -1.
       23    1    1    2    0    0  0.92693089312E+02  0.88783921299E+02  0.59775230719E+01  0.15756134126E+03  0.91188003540E+02 0.  1.
        2    1    1    2  501    0 -0.84864707281E+02 -0.30909473861E+02 -0.22725342269E+02  0.93133534764E+02  0.00000000000E+00 0. -1.
        1    1    1    2  502    0 -0.78283820312E+01 -0.57874447437E+02  0.25487030827E+03  0.26147582923E+03  0.00000000000E+00 0. -1.
</event>
<event>
 5   0  0.4642300E+02  0.1095594E+03  0.7546771E-02  0.1261388E+00
       21   -1    0    0  501  502  0.00000000000E+00  0.00000000000E+00  0.39086912475E+02  0.39086912475E+02  0.00000000000E+00 0.  1.
        1   -1    0    0  503    0  0.00000000000E+00  0.00000000000E+00 -0.13435268743E+04  0.13435268743E+04  0.00000000000E+00 0. -1.
       23    1    1    2    0    0 -0.54172067675E+02  0.29836001027E+02 -0.10452236936E+04  0.10510150435E+04  0.91188003540E+02 0. -1.
       21    1    1    2  503  502 -0.24940412308E+02 -0.83757088626E+02 -0.48021631687E+02  0.99716353579E+02  0.00000000000E+00 0.  1.
        1    1    1    2  501    0  0.79112479983E+02  0.53921087599E+02 -0.21119463647E+03  0.23188238970E+03  0.00000000000E+00 0. -1.
</event>
<event>
 5   0  0.4642300E+02  0.1109272E+03  0.7546771E-02  0.1258862E+00
        2   -1    0    0  501    0  0.00000000000E+00  0.00000000000E+00  0.16419625931E+04  0.16419625931E+04  0.00000000000E+00 0. -1.
       -1   -1    0    0    0  501  0.00000000000E+00  0.00000000000E+00 -0.40980057266E+02  0.40980057266E+02  0.00000000000E+00 0.  1.
       23    1    1    2    0    0 -0.21055340319E+02  0.57334571039E+02  0.64140915834E+02  0.12712155390E+03  0.91188003540E+02 0.  1.
        2    1    1    2  502    0  0.52435978966E+02  0.16647967851E+02  0.13650922846E+04  0.13662004364E+04  0.00000000000E+00 0. -1.
       -1    1    1    2    0  502 -0.31380638647E+02 -0.73982538890E+02  0.17174933535E+03  0.18962066010E+03  0.00000000000E+00 0.  1.
</event>
<event>
 5   0  0.4642300E+02  0.9896927E+02  0.7546771E-02  0.1282478E+00
       21   -1    0    0  501  502  0.00000000000E+00  0.00000000000E+00  0.40773796185E+02  0.40773796185E+02  0.00000000000E+00 0. -1.
        2   -1    0    0  503    0  0.00000000000E+00  0.00000000000E+00 -0.20356658975E+03  0.20356658975E+03  0.00000000000E+00 0. -1.
       23    1    1    2    0    0 -0.91177761467E+01 -0.11022947513E+02 -0.11857058943E+03  0.15026268958E+03  0.91188003540E+02 0.  0.
       21    1    1    2  503  502 -0.34815784547E+02  0.52168141672E+01 -0.33249286670E+02  0.48423848130E+02  0.00000000000E+00 0. -1.
        2    1    1    2  501    0  0.43933560694E+02  0.58061333462E+01 -0.10972917467E+02  0.45653848221E+02  0.00000000000E+00 0. -1.
</event>
<event>
 5   0  0.4642300E+02  0.9932463E+02  0.7546771E-02  0.1281723E+00
       21   -1    0    0  503  502  0.00000000000E+00  0.00000000000E+00  0.10538881502E+04  0.10538881502E+04  0.00000000000E+00 0.  1.
       -1   -1    0    0    0  501  0.00000000000E+00  0.00000000000E+00 -0.48719842456E+02  0.48719842456E+02  0.00000000000E+00 0.  1.
       23    1    1    2    0    0 -0.26121242284E+02  0.30917350325E+01  0.20928399812E+02  0.97186048547E+02  0.91188003540E+02 0.  1.
       21    1    1    2  503  501  0.60628245211E+02  0.17157970292E+02  0.87692311343E+02  0.10798204263E+03  0.00000000000E+00 0.  1.
       -1    1    1    2    0  502 -0.34507002928E+02 -0.20249705325E+02  0.89654759662E+03  0.89743990151E+03  0.00000000000E+00 0.  1.
</event>
<event>
 5   0  0.4642300E+02  0.9342654E+02  0.7546771E-02  0.1294760E+00
       21   -1    0    0  501  502  0.00000000000E+00  0.00000000000E+00  0.34168689702E+02  0.34168689702E+02  0.00000000000E+00 0. -1.
       -2   -1    0    0    0  501  0.00000000000E+00  0.00000000000E+00 -0.44477710900E+03  0.44477710900E+03  0.00000000000E+00 0.  1.
       23    1    1    2    0    0 -0.19864965227E+01  0.69049836439E+01 -0.30973364792E+03  0.32295790688E+03  0.91188003540E+02 0.  1.
       21    1    1    2  503  502  0.54505492128E+02 -0.25377929546E+02 -0.34363541068E+02  0.69251288326E+02  0.00000000000E+00 0. -1.
       -2    1    1    2    0  503 -0.52518995605E+02  0.18472945902E+02 -0.66511230303E+02  0.86736603496E+02  0.00000000000E+00 0.  1.
</event>
<event>
 5   0  0.4642300E+02  0.1281706E+03  0.7546771E-02  0.1230196E+00
        2   -1    0    0  503    0  0.00000000000E+00  0.00000000000E+00  0.11493761054E+04  0.11493761054E+04  0.00000000000E+00 0. -1.
       21   -1    0    0  501  502  0.00000000000E+00  0.00000000000E+00 -0.44346630422E+02  0.44346630422E+02  0.00000000000E+00 0.  1.
       23    1    1    2    0    0  0.64408858098E+02 -0.62080942087E+02  0.10293108472E+04  0.10372071233E+04  0.91188003540E+02 0.  0.
       21    1    1    2  503  502  0.27661180265E+02  0.21685281279E+02  0.29374180307E+02  0.45806492843E+02  0.00000000000E+00 0.  1.
        2    1    1    2  501    0 -0.92070038363E+02  0.40395660808E+02  0.46344447448E+02  0.11070911970E+03  0.00000000000E+00 0. -1.
</event>
</LesHouchesEvents>
