<LesHouchesEvents version="1.0">
<!--
Converted from ALPGEN
-->
<init>
    2212    2212  7.000000E+03  7.000000E+03    -1    -1    -1    -1     3     1
  4.335260E+02  5.119710E-01  1.000000E+00    81
  1.623191E+02  2.653259E-01  1.000000E+00    82
  9.684182E+00  1.992770E-02  1.000000E+00    83
</init>
<event>
    12    81  1.000000E+00  2.897660E+02 -1.000000E+00 -1.000000E+00
      21   -1    0    0  102  101  0.000000000E+00  0.000000000E+00  5.986030000E+02  5.986030000E+02  0.000000000E+00 0. 9.
      21   -1    0    0  103  102  0.000000000E+00  0.000000000E+00 -7.373100000E+01  7.373100000E+01  0.000000000E+00 0. 9.
       6    2    1    2  103    0  8.325000000E+01  6.653400000E+01  1.881880000E+02  2.782032692E+02  1.750000000E+02 0. 9.
      -6    2    1    2    0  101 -8.325000000E+01 -6.653400000E+01  3.366840000E+02  3.941299932E+02  1.750000000E+02 0. 9.
      24    2    3    0    0    0 -3.149000000E+00  8.386400000E+01  1.157100000E+02  1.640096241E+02  8.041931357E+01 0. 9.
       5    1    3    0  103    0  8.639900000E+01 -1.733000000E+01  7.247800000E+01  1.141936451E+02  4.691695029E+00 0. 9.
     -24    2    4    0    0    0 -1.548600000E+01 -9.777700000E+01  1.810030000E+02  2.214262057E+02  8.041965318E+01 0. 9.
      -5    1    4    0    0  101 -6.776400000E+01  3.124300000E+01  1.556810000E+02  1.727037875E+02  4.683984760E+00 0. 9.
       2    1    5    0  105    0  6.754000000E+00  4.445300000E+01  4.003000000E+00  4.514099837E+01  0.000000000E+00 0. 9.
      -1    1    5    0    0  105 -9.903000000E+00  3.941100000E+01  1.117070000E+02  1.188686257E+02  0.000000000E+00 0. 9.
       1    1    7    0  107    0 -1.926400000E+01  8.405000000E+00  2.472900000E+01  3.245410855E+01  0.000000000E+00 0. 9.
      -2    1    7    0    0  107  3.778000000E+00 -1.061820000E+02  1.562740000E+02  1.889720971E+02  0.000000000E+00 0. 9.
</event>
<event>
    15    83  1.000000E+00  4.390790E+02 -1.000000E+00 -1.000000E+00
      21   -1    0    0  105  104  0.000000000E+00  0.000000000E+00  9.195170000E+02  9.195170000E+02  0.000000000E+00 0. 9.
      21   -1    0    0  106  105  0.000000000E+00  0.000000000E+00 -1.687348000E+03  1.687348000E+03  0.000000000E+00 0. 9.
       6    2    1    2  106    0  1.404340000E+02  5.930200000E+01 -1.062132000E+03  1.087192633E+03  1.750000000E+02 0. 9.
      -6    2    1    2    0  101 -1.695440000E+02 -5.370200000E+01 -4.730420000E+02  5.348110007E+02  1.750000000E+02 0. 9.
      21    1    1    2  101  102 -1.852670000E+02 -5.242100000E+01  3.726600000E+01  1.961136846E+02  0.000000000E+00 0. 9.
      21    1    1    2  103  104  1.398740000E+02 -5.841100000E+01  5.255370000E+02  5.469604366E+02  0.000000000E+00 0. 9.
      21    1    1    2  102  103  7.450400000E+01  1.052320000E+02  2.045400000E+02  2.417875750E+02  0.000000000E+00 0. 9.
      24    2    3    0    0    0  1.066950000E+02  1.085890000E+02 -7.876640000E+02  8.062613307E+02  8.041991353E+01 0. 9.
       5    1    3    0  106    0  3.373900000E+01 -4.928700000E+01 -2.744680000E+02  2.809313022E+02  4.710100455E+00 0. 9.
     -24    2    4    0    0    0 -1.968310000E+02 -5.187900000E+01 -3.894690000E+02  4.467517557E+02  8.041863016E+01 0. 9.
      -5    1    4    0    0  101  2.728700000E+01 -1.823000000E+00 -8.357300000E+01  8.805924501E+01  4.699000411E+00 0. 9.
       4    1    8    0  108    0  6.914600000E+01  2.827700000E+01 -2.368010000E+02  2.483097293E+02  1.500000000E+00 0. 9.
      -3    1    8    0    0  108  3.754900000E+01  8.031200000E+01 -5.508630000E+02  5.579516014E+02  0.000000000E+00 0. 9.
      15    1   10    0    0    0 -1.129080000E+02 -7.300000000E-02 -1.498810000E+02  1.876584495E+02  1.777000000E+00 0. 9.
     -16    1   10    0    0    0 -8.392300000E+01 -5.180600000E+01 -2.395880000E+02  2.590933062E+02  0.000000000E+00 0. 9.
</event>
<event>
    13    82  1.000000E+00  3.975520E+02 -1.000000E+00 -1.000000E+00
      21   -1    0    0  102  101  0.000000000E+00  0.000000000E+00  2.544150000E+02  2.544150000E+02  0.000000000E+00 0. 9.
       2   -1    0    0  101    0  0.000000000E+00  0.000000000E+00 -8.382120000E+02  8.382120000E+02  0.000000000E+00 0. 9.
       6    2    1    2  102    0  2.141210000E+02  1.221830000E+02 -2.936400000E+01  3.037494570E+02  1.750000000E+02 0. 9.
      -6    2    1    2    0  103 -1.599170000E+02 -6.585100000E+01 -1.791000000E+01  2.466892158E+02  1.750000000E+02 0. 9.
       2    1    1    2  103    0 -5.420500000E+01 -5.633200000E+01 -5.365230000E+02  5.421885334E+02  0.000000000E+00 0. 9.
      24    2    3    0    0    0  1.076240000E+02  3.576000000E+00  2.204800000E+01  1.361946925E+02  8.041869693E+01 0. 9.
       5    1    3    0  102    0  1.064970000E+02  1.186070000E+02 -5.141200000E+01  1.675547645E+02  4.708916548E+00 0. 9.
     -24    2    4    0    0    0 -5.931300000E+01  1.898700000E+01  3.081500000E+01  1.062791916E+02  8.041868071E+01 0. 9.
      -5    1    4    0    0  103 -1.006040000E+02 -8.483800000E+01 -4.872500000E+01  1.404100242E+02  4.711497212E+00 0. 9.
      14    1    6    0    0    0  7.617600000E+01  2.180800000E+01 -1.888000000E+01  8.145444273E+01  0.000000000E+00 0. 9.
     -13    1    6    0    0    0  3.144800000E+01 -1.823200000E+01  4.092800000E+01  5.474024980E+01  1.060000000E-01 0. 9.
       1    1    8    0  108    0 -1.681000000E+01 -3.045600000E+01  2.018100000E+01  4.021712070E+01  0.000000000E+00 0. 9.
      -2    1    8    0    0  108 -4.250300000E+01  4.944300000E+01  1.063400000E+01  6.606207092E+01  0.000000000E+00 0. 9.
</event>
<event>
    12    81  1.000000E+00  2.736010E+02 -1.000000E+00 -1.000000E+00
      21   -1    0    0  102  101  0.000000000E+00  0.000000000E+00  2.398440000E+02  2.398440000E+02  0.000000000E+00 0. 9.
      21   -1    0    0  103  102  0.000000000E+00  0.000000000E+00 -2.179290000E+02  2.179290000E+02  0.000000000E+00 0. 9.
       6    2    1    2  103    0  3.217600000E+01 -7.595000000E+01  1.329180000E+02  2.347251418E+02  1.750000000E+02 0. 9.
      -6    2    1    2    0  101 -3.217600000E+01  7.595000000E+01 -1.110030000E+02  2.230478950E+02  1.750000000E+02 0. 9.
      24    2    3    0    0    0 -4.556400000E+01 -4.717000000E+01  4.297700000E+01  1.123177056E+02  8.041863884E+01 0. 9.
       5    1    3    0  103    0  7.774000000E+01 -2.878000000E+01  8.994100000E+01  1.224074362E+02  4.732964483E+00 0. 9.
     -24    2    4    0    0    0 -3.488200000E+01  9.908700000E+01 -1.351820000E+02  1.891465126E+02  8.041916817E+01 0. 9.
      -5    1    4    0    0  101  2.706000000E+00 -2.313700000E+01  2.417900000E+01  3.390138245E+01  4.694303594E+00 0. 9.
       2    1    5    0  105    0 -1.951500000E+01  1.163700000E+01  4.227700000E+01  4.799583027E+01  0.000000000E+00 0. 9.
      -1    1    5    0    0  105 -2.604900000E+01 -5.880700000E+01  7.000000000E-01  6.432187536E+01  0.000000000E+00 0. 9.
       1    1    7    0  107    0 -4.344100000E+01  2.873700000E+01 -2.411900000E+01  5.739914469E+01  0.000000000E+00 0. 9.
      -2    1    7    0    0  107  8.559000000E+00  7.035000000E+01 -1.110630000E+02  1.317473679E+02  0.000000000E+00 0. 9.
</event>
</LesHouchesEvents>
