<LesHouchesEvents version="1.0">
  <header>
  <MG5ProcCard>
#************************************************************           
#*                     MadGraph5_aMC@NLO                    *           
#*                                                          *           
#*                *                       *                 *           
#*                  *        * *        *                   *           
#*                    * * * * 5 * * * *                     *           
#*                  *        * *        *                   *           
#*                *                       *                 *           
#*                                                          *           
#*                                                          *           
#*         VERSION 2.2.1                 2014-09-25         *           
#*                                                          *           
#*    The MadGraph5_aMC@NLO Development Team - Find us at   *           
#*    https://server06.fynu.ucl.ac.be/projects/madgraph     *           
#*                                                          *           
#************************************************************           
#*                                                          *           
#*               Command File for MadGraph5_aMC@NLO         *           
#*                                                          *           
#*     run as ./bin/mg5_aMC  filename                       *           
#*                                                          *           
#************************************************************           
set loop_optimized_output True                                          
set group_subprocesses Auto                                             
set ignore_six_quark_processes False                                    
set gauge unitary                                                       
set complex_mass_scheme False                                           
import model loop_sm-no_b_mass                                          
define p = g u c d s u~ c~ d~ s~                                        
define j = g u c d s u~ c~ d~ s~                                        
define p = p b b~                                                       
define j = j b b~                                                       
define l+ = e+ mu+                                                      
define l- = e- mu-                                                      
define vl = ve vm vt                                                    
define vl~ = ve~ vm~ vt~                                                
generate p p > l+ vl [QCD] @0                                           
add process p p > l- vl~ [QCD] @1                                       
add process p p > l+ vl j [QCD] @2                                      
add process p p > l- vl~ j [QCD] @3                                     
output W01J_5F_NLO_FXFX                                                 
  </MG5ProcCard>
  <slha>
######################################################################  
## PARAM_CARD AUTOMATICALY GENERATED BY MG5 FOLLOWING UFO MODEL   ####  
######################################################################  
##                                                                  ##  
##  Width set on Auto will be computed following the information    ##  
##        present in the decay.py files of the model.               ##  
##        See  arXiv:1402.1178 for more details.                    ##  
##                                                                  ##  
######################################################################  
                                                                        
###################################                                     
## INFORMATION FOR LOOP                                                 
###################################                                     
Block loop                                                              
    1 9.118800e+01 # MU_R                                               
                                                                        
###################################                                     
## INFORMATION FOR MASS                                                 
###################################                                     
Block mass                                                              
    6 1.730000e+02 # MT                                                 
   15 1.777000e+00 # MTA                                                
   23 9.118800e+01 # MZ                                                 
   25 1.250000e+02 # MH                                                 
## Dependent parameters, given by model restrictions.                   
## Those values should be edited following the                          
## analytical expression. MG5 ignores those values                      
## but they are important for interfacing the output of MG5             
## to external program such as Pythia.                                  
  1 0.000000 # d : 0.0                                                  
  2 0.000000 # u : 0.0                                                  
  3 0.000000 # s : 0.0                                                  
  4 0.000000 # c : 0.0                                                  
  5 0.000000 # b : 0.0                                                  
  11 0.000000 # e- : 0.0                                                
  12 0.000000 # ve : 0.0                                                
  13 0.000000 # mu- : 0.0                                               
  14 0.000000 # vm : 0.0                                                
  16 0.000000 # vt : 0.0                                                
  21 0.000000 # g : 0.0                                                 
  22 0.000000 # a : 0.0                                                 
  24 80.419002 # w+ : cmath.sqrt(MZ__exp__2/2. + cmath.sqrt(MZ__exp__4/4
                                                                        
###################################                                     
## INFORMATION FOR SMINPUTS                                             
###################################                                     
Block sminputs                                                          
    1 1.325070e+02 # aEWM1                                              
    2 1.166390e-05 # Gf                                                 
    3 1.180000e-01 # aS                                                 
                                                                        
###################################                                     
## INFORMATION FOR YUKAWA                                               
###################################                                     
Block yukawa                                                            
    6 1.730000e+02 # ymt                                                
   15 1.777000e+00 # ymtau                                              
                                                                        
###################################                                     
## INFORMATION FOR DECAY                                                
###################################                                     
DECAY   6 1.491500e+00 # WT                                             
DECAY  23 2.441404e+00 # WZ                                             
DECAY  24 2.047600e+00 # WW                                             
DECAY  25 6.382339e-03 # WH                                             
## Dependent parameters, given by model restrictions.                   
## Those values should be edited following the                          
## analytical expression. MG5 ignores those values                      
## but they are important for interfacing the output of MG5             
## to external program such as Pythia.                                  
DECAY  1 0.000000 # d : 0.0                                             
DECAY  2 0.000000 # u : 0.0                                             
DECAY  3 0.000000 # s : 0.0                                             
DECAY  4 0.000000 # c : 0.0                                             
DECAY  5 0.000000 # b : 0.0                                             
DECAY  11 0.000000 # e- : 0.0                                           
DECAY  12 0.000000 # ve : 0.0                                           
DECAY  13 0.000000 # mu- : 0.0                                          
DECAY  14 0.000000 # vm : 0.0                                           
DECAY  15 0.000000 # ta- : 0.0                                          
DECAY  16 0.000000 # vt : 0.0                                           
DECAY  21 0.000000 # g : 0.0                                            
DECAY  22 0.000000 # a : 0.0                                            
  </slha>
  <MGRunCard>
#***********************************************************************
#                        MadGraph5_aMC@NLO                             *
#                                                                      *
#                      run_card.dat aMC@NLO                            *
#                                                                      *
#  This file is used to set the parameters of the run.                 *
#                                                                      *
#  Some notation/conventions:                                          *
#                                                                      *
#   Lines starting with a hash (#) are info or comments                *
#                                                                      *
#   mind the format:   value    = variable     ! comment               *
#***********************************************************************
#                                                                       
#*******************                                                    
# Running parameters                                                    
#*******************                                                    
#                                                                       
#***********************************************************************
# Tag name for the run (one word)                                      *
#***********************************************************************
  tag_1	=  run_tag  ! name of the run                                   
#***********************************************************************
# Number of LHE events (and their normalization) and the required      *
# (relative) accuracy on the Xsec.                                     *
# These values are ignored for fixed order runs                        *
#***********************************************************************
     100000 = nevents                                                   
  0.003	=  req_acc  ! Required accuracy (-1=auto determined from nevents
  50000	=  nevt_job ! Max number of events per job in event generation. 
                 !  (-1= no split).                                     
#***********************************************************************
# Normalize the weights of LHE events such that they sum or average to *
# the total cross section                                              *
#***********************************************************************
  average	=  event_norm       ! average or sum                          
#***********************************************************************
# Number of points per itegration channel (ignored for aMC@NLO runs)   *
#***********************************************************************
  0.01	=  req_acc_FO        ! Required accuracy (-1=ignored, and use the
 	                   ! number of points and iter. below)                
# These numbers are ignored except if req_acc_FO is equal to -1         
  5000	=  npoints_FO_grid   ! number of points to setup grids           
  4	=  niters_FO_grid    ! number of iter. to setup grids               
  10000	=  npoints_FO        ! number of points to compute Xsec         
  6	=  niters_FO         ! number of iter. to compute Xsec              
#***********************************************************************
# Random number seed                                                   *
#***********************************************************************
         30 =  iseed                                                    
#***********************************************************************
# Collider type and energy                                             *
#***********************************************************************
  1	=  lpp1     ! beam 1 type (0 = no PDF)                              
  1	=  lpp2     ! beam 2 type (0 = no PDF)                              
  6500	=  ebeam1   ! beam 1 energy in GeV                               
  6500	=  ebeam2   ! beam 2 energy in GeV                               
#***********************************************************************
# PDF choice: this automatically fixes also alpha_s(MZ) and its evol.  *
#***********************************************************************
  lhapdf	=  pdlabel    ! PDF set                                        
  10800	=  lhaid      ! if pdlabel=lhapdf, this is the lhapdf number    
#***********************************************************************
# Include the NLO Monte Carlo subtr. terms for the following parton    *
# shower (HERWIG6 | HERWIGPP | PYTHIA6Q | PYTHIA6PT | PYTHIA8)         *
# WARNING: PYTHIA6PT works only for processes without FSR!!!!          *
#***********************************************************************
  PYTHIA8	=  parton_shower                                              
 #**********************************************************************
# Renormalization and factorization scales                             *
# (Default functional form for the non-fixed scales is the sum of      *
# the transverse masses of all final state particles and partons. This *
# can be changed in SubProcesses/set_scales.f)                         *
#***********************************************************************
  F	=  fixed_ren_scale   ! if .true. use fixed ren scale                
  F	=  fixed_fac_scale   ! if .true. use fixed fac scale                
  91.188	=  muR_ref_fixed     ! fixed ren reference scale               
  91.188	=  muF1_ref_fixed    ! fixed fact reference scale for pdf1     
  91.188	=  muF2_ref_fixed    ! fixed fact reference scale for pdf2     
#***********************************************************************
# Renormalization and factorization scales (advanced and NLO options)  *
#***********************************************************************
  F	=  fixed_QES_scale   ! if .true. use fixed Ellis-Sexton scale       
  91.188	=  QES_ref_fixed     ! fixed Ellis-Sexton reference scale      
  1	=  muR_over_ref      ! ratio of current muR over reference muR      
  1	=  muF1_over_ref     ! ratio of current muF1 over reference muF1    
  1	=  muF2_over_ref     ! ratio of current muF2 over reference muF2    
  1	=  QES_over_ref      ! ratio of current QES over reference QES      
#***********************************************************************
# Reweight flags to get scale dependence and PDF uncertainty           *
# For scale dependence: factor rw_scale_up/down around central scale   *
# For PDF uncertainty: use LHAPDF with supported set                   *
#***********************************************************************
  .true.	=  reweight_scale    ! reweight to get scale dependence        
  0.5	=  rw_Rscale_down    ! lower bound for ren scale variations       
  2.0	=  rw_Rscale_up      ! upper bound for ren scale variations       
  0.5	=  rw_Fscale_down    ! lower bound for fact scale variations      
  2.0	=  rw_Fscale_up      ! upper bound for fact scale variations      
  .true.	=  reweight_PDF      ! reweight to get PDF uncertainty         
  10801	=  PDF_set_min       ! First of the error PDF sets              
  10852	=  PDF_set_max       ! Last of the error PDF sets               
#***********************************************************************
# Merging - WARNING! Applies merging only at the hard-event level.     *
# After showering an MLM-type merging should be applied as well.       *
# See http://amcatnlo.cern.ch/FxFx_merging.htm for more details.       *
#***********************************************************************
  3	=  ickkw             ! 0 no merging, 3 FxFx merging, 4 UNLOPS       
#***********************************************************************
#                                                                       
#***********************************************************************
# BW cutoff (M+/-bwcutoff*Gamma)                                       *
#***********************************************************************
  15	=  bwcutoff                                                        
 #**********************************************************************
# Cuts on the jets                                                     *
# Jet clustering is performed by FastJet.                               
# When matching to a parton shower, these generation cuts should be    *
# considerably softer than the analysis cuts.                          *
# (more specific cuts can be specified in SubProcesses/cuts.f)         *
#***********************************************************************
  1	=  jetalgo    ! FastJet jet algorithm (1=kT, 0=C/A, -1=anti-kT)     
  1.0	=  jetradius  ! The radius parameter for the jet algorithm        
  10	=  ptj        ! Min jet transverse momentum                        
  5	=  etaj       ! Max jet abs(pseudo-rap) (a value .lt.0 means no cut)
#***********************************************************************
# Cuts on the charged leptons (e+, e-, mu+, mu-, tau+ and tau-)        *
# (more specific gen cuts can be specified in SubProcesses/cuts.f)     *
#***********************************************************************
  0	=  ptl      ! Min lepton transverse momentum                        
  -1	=  etal     ! Max lepton abs(pseudo-rap) (a value .lt.0 means no cu
  0	=  drll     ! Min distance between opposite sign lepton pairs       
  0	=  drll_sf  ! Min distance between opp. sign same-flavor lepton pair
  0	=  mll      ! Min inv. mass of all opposite sign lepton pairs       
  0	=  mll_sf   ! Min inv. mass of all opp. sign same-flavor lepton pair
#***********************************************************************
# Photon-isolation cuts, according to hep-ph/9801442                   *
# When ptgmin=0, all the other parameters are ignored                  *
#***********************************************************************
  20	=  ptgmin     ! Min photon transverse momentum                     
  -1	=  etagamma   ! Max photon abs(pseudo-rap)                         
  0.4	=  R0gamma    ! Radius of isolation code                          
  1.0	=  xn         ! n parameter of eq.(3.4) in hep-ph/9801442         
  1.0	=  epsgamma   ! epsilon_gamma parameter of eq.(3.4) in hep-ph/9801
  .true.	=  isoEM   ! isolate photons from EM energy (photons and lepton
#***********************************************************************
# Maximal PDG code for quark to be considered a jet when applying cuts.*
# At least all massless quarks of the model should be included here.   *
#***********************************************************************
  5	=  maxjetflavor                                                     
 #**********************************************************************
# For aMCfast+APPLGRID use in PDF fitting (http://amcfast.hepforge.org)*
#***********************************************************************
 0 = iappl   ! aMCfast switch (0=OFF, 1=prepare APPLgrids, 2=fill grids)
#***********************************************************************
  10800	= lhaid                                                         
  </MGRunCard>
  <scalesfunctionalform>
    muR  FxFx merging scale
    muF1 FxFx merging scale
    muF2 FxFx merging scale
    QES  H_T/2 := sum_i mT(i)/2, i=final state
  </scalesfunctionalform>
  <MonteCarloMasses>
       1   0.330000E+00
       2   0.330000E+00
       3   0.500000E+00
       4   0.150000E+01
       5   0.480000E+01
      11   0.510999E-03
      13   0.105658E+00
      15   0.177682E+01
      21   0.000000E+00
  </MonteCarloMasses>
  <initrwgt>
    <weightgroup type='scale_variation' combine='envelope'>
      <weight id='1001'> muR=0.10000E+01 muF=0.10000E+01 </weight>
      <weight id='1002'> muR=0.10000E+01 muF=0.20000E+01 </weight>
      <weight id='1003'> muR=0.10000E+01 muF=0.50000E+00 </weight>
      <weight id='1004'> muR=0.20000E+01 muF=0.10000E+01 </weight>
      <weight id='1005'> muR=0.20000E+01 muF=0.20000E+01 </weight>
      <weight id='1006'> muR=0.20000E+01 muF=0.50000E+00 </weight>
      <weight id='1007'> muR=0.50000E+00 muF=0.10000E+01 </weight>
      <weight id='1008'> muR=0.50000E+00 muF=0.20000E+01 </weight>
      <weight id='1009'> muR=0.50000E+00 muF=0.50000E+00 </weight>
    </weightgroup>
    <weightgroup type='PDF_variation' combine='hessian'>
      <weight id='2001'> pdfset= 10801 </weight>
      <weight id='2002'> pdfset= 10802 </weight>
      <weight id='2003'> pdfset= 10803 </weight>
      <weight id='2004'> pdfset= 10804 </weight>
      <weight id='2005'> pdfset= 10805 </weight>
      <weight id='2006'> pdfset= 10806 </weight>
      <weight id='2007'> pdfset= 10807 </weight>
      <weight id='2008'> pdfset= 10808 </weight>
      <weight id='2009'> pdfset= 10809 </weight>
      <weight id='2010'> pdfset= 10810 </weight>
      <weight id='2011'> pdfset= 10811 </weight>
      <weight id='2012'> pdfset= 10812 </weight>
      <weight id='2013'> pdfset= 10813 </weight>
      <weight id='2014'> pdfset= 10814 </weight>
      <weight id='2015'> pdfset= 10815 </weight>
      <weight id='2016'> pdfset= 10816 </weight>
      <weight id='2017'> pdfset= 10817 </weight>
      <weight id='2018'> pdfset= 10818 </weight>
      <weight id='2019'> pdfset= 10819 </weight>
      <weight id='2020'> pdfset= 10820 </weight>
      <weight id='2021'> pdfset= 10821 </weight>
      <weight id='2022'> pdfset= 10822 </weight>
      <weight id='2023'> pdfset= 10823 </weight>
      <weight id='2024'> pdfset= 10824 </weight>
      <weight id='2025'> pdfset= 10825 </weight>
      <weight id='2026'> pdfset= 10826 </weight>
      <weight id='2027'> pdfset= 10827 </weight>
      <weight id='2028'> pdfset= 10828 </weight>
      <weight id='2029'> pdfset= 10829 </weight>
      <weight id='2030'> pdfset= 10830 </weight>
      <weight id='2031'> pdfset= 10831 </weight>
      <weight id='2032'> pdfset= 10832 </weight>
      <weight id='2033'> pdfset= 10833 </weight>
      <weight id='2034'> pdfset= 10834 </weight>
      <weight id='2035'> pdfset= 10835 </weight>
      <weight id='2036'> pdfset= 10836 </weight>
      <weight id='2037'> pdfset= 10837 </weight>
      <weight id='2038'> pdfset= 10838 </weight>
      <weight id='2039'> pdfset= 10839 </weight>
      <weight id='2040'> pdfset= 10840 </weight>
      <weight id='2041'> pdfset= 10841 </weight>
      <weight id='2042'> pdfset= 10842 </weight>
      <weight id='2043'> pdfset= 10843 </weight>
      <weight id='2044'> pdfset= 10844 </weight>
      <weight id='2045'> pdfset= 10845 </weight>
      <weight id='2046'> pdfset= 10846 </weight>
      <weight id='2047'> pdfset= 10847 </weight>
      <weight id='2048'> pdfset= 10848 </weight>
      <weight id='2049'> pdfset= 10849 </weight>
      <weight id='2050'> pdfset= 10850 </weight>
      <weight id='2051'> pdfset= 10851 </weight>
      <weight id='2052'> pdfset= 10852 </weight>
    </weightgroup>
  </initrwgt>
  </header>
  <init>
   2212   2212 0.65000000E+04 0.65000000E+04 -1 -1  10800  10800 -4   4
 0.12556822E+05 0.10450447E+03 0.10292550E+06      2
 0.92324020E+04 0.76862470E+02 0.10292550E+06      3
 0.23222130E+05 0.97212633E+02 0.10292550E+06      0
 0.16991587E+05 0.73728611E+02 0.10292550E+06      1
  </init>
  <event npLO=' -1 ' npNLO=' 1 '>
  6      2 -.10292550E+06 0.12014309E+02 0.75467716E-02 0.11800000E+00
       21 -1    0    0  501  502 0.00000000E+00 0.00000000E+00 0.28530694E+01 0.28530694E+01 0.00000000E+00 0.0000E+00 0.9000E+01
        2 -1    0    0  502    0 -.00000000E+00 -.00000000E+00 -.17476867E+04 0.17476867E+04 0.33000000E+00 0.0000E+00 0.9000E+01
       24  2    1    2    0    0 0.38509215E+01 0.11380222E+02 -.17277005E+04 0.17296116E+04 0.80390776E+02 0.0000E+00 0.0000E+00
      -11  1    3    3    0    0 -.11843199E+02 -.46609141E+01 -.45101940E+02 0.46863317E+02 0.51099893E-03 0.0000E+00 0.9000E+01
       12  1    3    3    0    0 0.15694121E+02 0.16041136E+02 -.16825986E+04 0.16827483E+04 0.00000000E+00 0.0000E+00 0.9000E+01
        1  1    1    2  501    0 -.38509215E+01 -.11380222E+02 -.17133061E+02 0.20928204E+02 0.33000000E+00 0.0000E+00 0.9000E+01
#aMCatNLO 1  6  5  5  2 0.93168400E+01 0.91971318E+01 9  0  0 0.99999984E+00 0.43624241E+01 -.59564252E+00 0.90297003E+00 0.10680265E+01
  <rwgt>
   <wgt id='1001'> -.10293E+06 </wgt>
   <wgt id='1002'> -.11783E+06 </wgt>
   <wgt id='1003'> -.81537E+05 </wgt>
   <wgt id='1004'> 0.48868E+05 </wgt>
   <wgt id='1005'> 0.61307E+05 </wgt>
   <wgt id='1006'> 0.35260E+05 </wgt>
   <wgt id='1007'> -.38333E+06 </wgt>
   <wgt id='1008'> -.44900E+06 </wgt>
   <wgt id='1009'> -.29714E+06 </wgt>
   <wgt id='2001'> -.10347E+06 </wgt>
   <wgt id='2002'> -.10242E+06 </wgt>
   <wgt id='2003'> -.10189E+06 </wgt>
   <wgt id='2004'> -.10400E+06 </wgt>
   <wgt id='2005'> -.10469E+06 </wgt>
   <wgt id='2006'> -.10148E+06 </wgt>
   <wgt id='2007'> -.97975E+05 </wgt>
   <wgt id='2008'> -.10813E+06 </wgt>
   <wgt id='2009'> -.10321E+06 </wgt>
   <wgt id='2010'> -.10260E+06 </wgt>
   <wgt id='2011'> -.10228E+06 </wgt>
   <wgt id='2012'> -.10340E+06 </wgt>
   <wgt id='2013'> -.10347E+06 </wgt>
   <wgt id='2014'> -.10170E+06 </wgt>
   <wgt id='2015'> -.10155E+06 </wgt>
   <wgt id='2016'> -.10419E+06 </wgt>
   <wgt id='2017'> -.10230E+06 </wgt>
   <wgt id='2018'> -.10314E+06 </wgt>
   <wgt id='2019'> -.10321E+06 </wgt>
   <wgt id='2020'> -.10276E+06 </wgt>
   <wgt id='2021'> -.10121E+06 </wgt>
   <wgt id='2022'> -.10400E+06 </wgt>
   <wgt id='2023'> -.10405E+06 </wgt>
   <wgt id='2024'> -.98896E+05 </wgt>
   <wgt id='2025'> -.10301E+06 </wgt>
   <wgt id='2026'> -.10276E+06 </wgt>
   <wgt id='2027'> -.10261E+06 </wgt>
   <wgt id='2028'> -.10308E+06 </wgt>
   <wgt id='2029'> -.10250E+06 </wgt>
   <wgt id='2030'> -.10335E+06 </wgt>
   <wgt id='2031'> -.10279E+06 </wgt>
   <wgt id='2032'> -.10282E+06 </wgt>
   <wgt id='2033'> -.99226E+05 </wgt>
   <wgt id='2034'> -.10432E+06 </wgt>
   <wgt id='2035'> -.10047E+06 </wgt>
   <wgt id='2036'> -.10209E+06 </wgt>
   <wgt id='2037'> -.10257E+06 </wgt>
   <wgt id='2038'> -.10352E+06 </wgt>
   <wgt id='2039'> -.10252E+06 </wgt>
   <wgt id='2040'> -.10067E+06 </wgt>
   <wgt id='2041'> -.10288E+06 </wgt>
   <wgt id='2042'> -.10301E+06 </wgt>
   <wgt id='2043'> -.10277E+06 </wgt>
   <wgt id='2044'> -.10343E+06 </wgt>
   <wgt id='2045'> -.10340E+06 </wgt>
   <wgt id='2046'> -.10216E+06 </wgt>
   <wgt id='2047'> -.10143E+06 </wgt>
   <wgt id='2048'> -.10068E+06 </wgt>
   <wgt id='2049'> -.10308E+06 </wgt>
   <wgt id='2050'> -.10250E+06 </wgt>
   <wgt id='2051'> -.98777E+05 </wgt>
   <wgt id='2052'> -.10603E+06 </wgt>
  </rwgt>
  </event>
  <event npLO=' -1 ' npNLO=' 0 '>
  5      0 0.10292550E+06 0.46357612E+02 0.75467716E-02 0.11800000E+00
        2 -1    0    0  501    0 0.00000000E+00 0.00000000E+00 0.11185199E+04 0.11185199E+04 0.33000000E+00 0.0000E+00 0.9000E+01
       -1 -1    0    0    0  501 0.00000000E+00 0.00000000E+00 -.14022106E+01 0.14405188E+01 0.33000000E+00 0.0000E+00 0.9000E+01
       24  2    1    2    0    0 0.00000000E+00 0.00000000E+00 0.11171177E+04 0.11199605E+04 0.79746577E+02 0.0000E+00 0.0000E+00
      -13  1    3    3    0    0 0.12849005E+02 -.33701118E+02 0.31980725E+03 0.32183466E+03 0.10565837E+00 0.0000E+00 0.9000E+01
       14  1    3    3    0    0 -.12849005E+02 0.33701118E+02 0.79731043E+03 0.79812580E+03 0.00000000E+00 0.0000E+00 0.9000E+01
#aMCatNLO 1  5  2  2  1 0.89736006E+01 0.36263175E+01 9  0  0 0.10000000E+01 0.85541369E+00 0.11480305E+01 0.93109541E+00 0.10497441E+01
  <rwgt>
   <wgt id='1001'> 0.10293E+06 </wgt>
   <wgt id='1002'> 0.11323E+06 </wgt>
   <wgt id='1003'> 0.91309E+05 </wgt>
   <wgt id='1004'> 0.99277E+05 </wgt>
   <wgt id='1005'> 0.10926E+06 </wgt>
   <wgt id='1006'> 0.88044E+05 </wgt>
   <wgt id='1007'> 0.10745E+06 </wgt>
   <wgt id='1008'> 0.11816E+06 </wgt>
   <wgt id='1009'> 0.95353E+05 </wgt>
   <wgt id='2001'> 0.10282E+06 </wgt>
   <wgt id='2002'> 0.10301E+06 </wgt>
   <wgt id='2003'> 0.10149E+06 </wgt>
   <wgt id='2004'> 0.10443E+06 </wgt>
   <wgt id='2005'> 0.10352E+06 </wgt>
   <wgt id='2006'> 0.10246E+06 </wgt>
   <wgt id='2007'> 0.99772E+05 </wgt>
   <wgt id='2008'> 0.10629E+06 </wgt>
   <wgt id='2009'> 0.10352E+06 </wgt>
   <wgt id='2010'> 0.10219E+06 </wgt>
   <wgt id='2011'> 0.10262E+06 </wgt>
   <wgt id='2012'> 0.10321E+06 </wgt>
   <wgt id='2013'> 0.10259E+06 </wgt>
   <wgt id='2014'> 0.10306E+06 </wgt>
   <wgt id='2015'> 0.10197E+06 </wgt>
   <wgt id='2016'> 0.10378E+06 </wgt>
   <wgt id='2017'> 0.10090E+06 </wgt>
   <wgt id='2018'> 0.10385E+06 </wgt>
   <wgt id='2019'> 0.10249E+06 </wgt>
   <wgt id='2020'> 0.10294E+06 </wgt>
   <wgt id='2021'> 0.10097E+06 </wgt>
   <wgt id='2022'> 0.10429E+06 </wgt>
   <wgt id='2023'> 0.10317E+06 </wgt>
   <wgt id='2024'> 0.10049E+06 </wgt>
   <wgt id='2025'> 0.10338E+06 </wgt>
   <wgt id='2026'> 0.10208E+06 </wgt>
   <wgt id='2027'> 0.10287E+06 </wgt>
   <wgt id='2028'> 0.10289E+06 </wgt>
   <wgt id='2029'> 0.10266E+06 </wgt>
   <wgt id='2030'> 0.10325E+06 </wgt>
   <wgt id='2031'> 0.10311E+06 </wgt>
   <wgt id='2032'> 0.10267E+06 </wgt>
   <wgt id='2033'> 0.10132E+06 </wgt>
   <wgt id='2034'> 0.10323E+06 </wgt>
   <wgt id='2035'> 0.10046E+06 </wgt>
   <wgt id='2036'> 0.10289E+06 </wgt>
   <wgt id='2037'> 0.10273E+06 </wgt>
   <wgt id='2038'> 0.10345E+06 </wgt>
   <wgt id='2039'> 0.10306E+06 </wgt>
   <wgt id='2040'> 0.10104E+06 </wgt>
   <wgt id='2041'> 0.10410E+06 </wgt>
   <wgt id='2042'> 0.10212E+06 </wgt>
   <wgt id='2043'> 0.10342E+06 </wgt>
   <wgt id='2044'> 0.10277E+06 </wgt>
   <wgt id='2045'> 0.10238E+06 </wgt>
   <wgt id='2046'> 0.10416E+06 </wgt>
   <wgt id='2047'> 0.10193E+06 </wgt>
   <wgt id='2048'> 0.10114E+06 </wgt>
   <wgt id='2049'> 0.10221E+06 </wgt>
   <wgt id='2050'> 0.10308E+06 </wgt>
   <wgt id='2051'> 0.10078E+06 </wgt>
   <wgt id='2052'> 0.10503E+06 </wgt>
  </rwgt>
  </event>
  <event npLO=' -1 ' npNLO=' 1 '>
  6      2 0.10292550E+06 0.76455552E+02 0.75467716E-02 0.11800000E+00
       -3 -1    0    0    0  501 0.00000000E+00 0.00000000E+00 0.70070877E+02 0.70072661E+02 0.50000000E+00 0.0000E+00 0.9000E+01
       21 -1    0    0  501  502 0.00000000E+00 0.00000000E+00 -.16366649E+03 0.16366649E+03 0.00000000E+00 0.0000E+00 0.9000E+01
       24  2    1    2    0    0 0.70487962E+02 -.29597439E+02 0.21154979E+01 0.11123434E+03 0.80771547E+02 0.0000E+00 0.0000E+00
      -13  1    3    3    0    0 0.59886990E+02 0.17907599E+02 -.16655870E+00 0.62507380E+02 0.10565837E+00 0.0000E+00 0.9000E+01
       14  1    3    3    0    0 0.10600972E+02 -.47505038E+02 0.22820566E+01 0.48726964E+02 0.00000000E+00 0.0000E+00 0.9000E+01
       -4  1    1    2    0  502 -.70487962E+02 0.29597439E+02 -.95711110E+02 0.12250481E+03 0.15000000E+01 0.0000E+00 0.9000E+01
#aMCatNLO 1  6  2  0  0 0.00000000E+00 0.00000000E+00 9  0  0 0.10000000E+01 0.76925726E+00 0.13059208E+01 0.86390742E+00 0.11732329E+01
  <rwgt>
   <wgt id='1001'> 0.10293E+06 </wgt>
   <wgt id='1002'> 0.10702E+06 </wgt>
   <wgt id='1003'> 0.97144E+05 </wgt>
   <wgt id='1004'> 0.83889E+05 </wgt>
   <wgt id='1005'> 0.87220E+05 </wgt>
   <wgt id='1006'> 0.79176E+05 </wgt>
   <wgt id='1007'> 0.12927E+06 </wgt>
   <wgt id='1008'> 0.13441E+06 </wgt>
   <wgt id='1009'> 0.12202E+06 </wgt>
   <wgt id='2001'> 0.10203E+06 </wgt>
   <wgt id='2002'> 0.10375E+06 </wgt>
   <wgt id='2003'> 0.10295E+06 </wgt>
   <wgt id='2004'> 0.10289E+06 </wgt>
   <wgt id='2005'> 0.10337E+06 </wgt>
   <wgt id='2006'> 0.10249E+06 </wgt>
   <wgt id='2007'> 0.10295E+06 </wgt>
   <wgt id='2008'> 0.10260E+06 </wgt>
   <wgt id='2009'> 0.10278E+06 </wgt>
   <wgt id='2010'> 0.10310E+06 </wgt>
   <wgt id='2011'> 0.10252E+06 </wgt>
   <wgt id='2012'> 0.10316E+06 </wgt>
   <wgt id='2013'> 0.10103E+06 </wgt>
   <wgt id='2014'> 0.10616E+06 </wgt>
   <wgt id='2015'> 0.10266E+06 </wgt>
   <wgt id='2016'> 0.10312E+06 </wgt>
   <wgt id='2017'> 0.10967E+06 </wgt>
   <wgt id='2018'> 0.10017E+06 </wgt>
   <wgt id='2019'> 0.11462E+06 </wgt>
   <wgt id='2020'> 0.98422E+05 </wgt>
   <wgt id='2021'> 0.10872E+06 </wgt>
   <wgt id='2022'> 0.98110E+05 </wgt>
   <wgt id='2023'> 0.10593E+06 </wgt>
   <wgt id='2024'> 0.10006E+06 </wgt>
   <wgt id='2025'> 0.10277E+06 </wgt>
   <wgt id='2026'> 0.10314E+06 </wgt>
   <wgt id='2027'> 0.10004E+06 </wgt>
   <wgt id='2028'> 0.10450E+06 </wgt>
   <wgt id='2029'> 0.10146E+06 </wgt>
   <wgt id='2030'> 0.10400E+06 </wgt>
   <wgt id='2031'> 0.10417E+06 </wgt>
   <wgt id='2032'> 0.10193E+06 </wgt>
   <wgt id='2033'> 0.10043E+06 </wgt>
   <wgt id='2034'> 0.10392E+06 </wgt>
   <wgt id='2035'> 0.10493E+06 </wgt>
   <wgt id='2036'> 0.10295E+06 </wgt>
   <wgt id='2037'> 0.10414E+06 </wgt>
   <wgt id='2038'> 0.10191E+06 </wgt>
   <wgt id='2039'> 0.10149E+06 </wgt>
   <wgt id='2040'> 0.10545E+06 </wgt>
   <wgt id='2041'> 0.95968E+05 </wgt>
   <wgt id='2042'> 0.10829E+06 </wgt>
   <wgt id='2043'> 0.10103E+06 </wgt>
   <wgt id='2044'> 0.10492E+06 </wgt>
   <wgt id='2045'> 0.10748E+06 </wgt>
   <wgt id='2046'> 0.96724E+05 </wgt>
   <wgt id='2047'> 0.10497E+06 </wgt>
   <wgt id='2048'> 0.10066E+06 </wgt>
   <wgt id='2049'> 0.10460E+06 </wgt>
   <wgt id='2050'> 0.99043E+05 </wgt>
   <wgt id='2051'> 0.10470E+06 </wgt>
   <wgt id='2052'> 0.10215E+06 </wgt>
  </rwgt>
  </event>
  <event npLO=' -1 ' npNLO=' 1 '>
  6      2 0.10292550E+06 0.11856187E+02 0.75467716E-02 0.11800000E+00
       21 -1    0    0  501  502 0.00000000E+00 0.00000000E+00 0.10998960E+02 0.10998960E+02 0.00000000E+00 0.0000E+00 0.9000E+01
       -1 -1    0    0    0  501 0.00000000E+00 0.00000000E+00 -.22835753E+03 0.22835777E+03 0.33000000E+00 0.0000E+00 0.9000E+01
       24  2    1    2    0    0 0.68658240E+01 0.96633080E+01 -.20956167E+03 0.22516449E+03 0.81501143E+02 0.0000E+00 0.0000E+00
      -13  1    3    3    0    0 0.43761005E+02 0.21968575E+01 -.96003095E+02 0.10552941E+03 0.10565837E+00 0.0000E+00 0.9000E+01
       14  1    3    3    0    0 -.36895181E+02 0.74664505E+01 -.11355857E+03 0.11963508E+03 0.00000000E+00 0.0000E+00 0.9000E+01
       -2  1    1    2    0  502 -.68658240E+01 -.96633080E+01 -.77969046E+01 0.14192240E+02 0.33000000E+00 0.0000E+00 0.9000E+01
#aMCatNLO 1  6  1  1  2 0.91293853E+01 0.77587587E+01 9  0  0 0.10000000E+01 0.55772149E+00 0.17597813E+01 0.88858328E+00 0.10792846E+01
  <rwgt>
   <wgt id='1001'> 0.10293E+06 </wgt>
   <wgt id='1002'> 0.13684E+06 </wgt>
   <wgt id='1003'> 0.72044E+05 </wgt>
   <wgt id='1004'> 0.81706E+05 </wgt>
   <wgt id='1005'> 0.10813E+06 </wgt>
   <wgt id='1006'> 0.57404E+05 </wgt>
   <wgt id='1007'> 0.13543E+06 </wgt>
   <wgt id='1008'> 0.18113E+06 </wgt>
   <wgt id='1009'> 0.94308E+05 </wgt>
   <wgt id='2001'> 0.10081E+06 </wgt>
   <wgt id='2002'> 0.10490E+06 </wgt>
   <wgt id='2003'> 0.10275E+06 </wgt>
   <wgt id='2004'> 0.10308E+06 </wgt>
   <wgt id='2005'> 0.10225E+06 </wgt>
   <wgt id='2006'> 0.10345E+06 </wgt>
   <wgt id='2007'> 0.98102E+05 </wgt>
   <wgt id='2008'> 0.10745E+06 </wgt>
   <wgt id='2009'> 0.10176E+06 </wgt>
   <wgt id='2010'> 0.10438E+06 </wgt>
   <wgt id='2011'> 0.10232E+06 </wgt>
   <wgt id='2012'> 0.10321E+06 </wgt>
   <wgt id='2013'> 0.10181E+06 </wgt>
   <wgt id='2014'> 0.10398E+06 </wgt>
   <wgt id='2015'> 0.10289E+06 </wgt>
   <wgt id='2016'> 0.10283E+06 </wgt>
   <wgt id='2017'> 0.10090E+06 </wgt>
   <wgt id='2018'> 0.10351E+06 </wgt>
   <wgt id='2019'> 0.97776E+05 </wgt>
   <wgt id='2020'> 0.10481E+06 </wgt>
   <wgt id='2021'> 0.10094E+06 </wgt>
   <wgt id='2022'> 0.10406E+06 </wgt>
   <wgt id='2023'> 0.10449E+06 </wgt>
   <wgt id='2024'> 0.99330E+05 </wgt>
   <wgt id='2025'> 0.10312E+06 </wgt>
   <wgt id='2026'> 0.10219E+06 </wgt>
   <wgt id='2027'> 0.10285E+06 </wgt>
   <wgt id='2028'> 0.10286E+06 </wgt>
   <wgt id='2029'> 0.10467E+06 </wgt>
   <wgt id='2030'> 0.10146E+06 </wgt>
   <wgt id='2031'> 0.10280E+06 </wgt>
   <wgt id='2032'> 0.10294E+06 </wgt>
   <wgt id='2033'> 0.99836E+05 </wgt>
   <wgt id='2034'> 0.10377E+06 </wgt>
   <wgt id='2035'> 0.10110E+06 </wgt>
   <wgt id='2036'> 0.10305E+06 </wgt>
   <wgt id='2037'> 0.10622E+06 </wgt>
   <wgt id='2038'> 0.99823E+05 </wgt>
   <wgt id='2039'> 0.10584E+06 </wgt>
   <wgt id='2040'> 0.10017E+06 </wgt>
   <wgt id='2041'> 0.10475E+06 </wgt>
   <wgt id='2042'> 0.10170E+06 </wgt>
   <wgt id='2043'> 0.10121E+06 </wgt>
   <wgt id='2044'> 0.10468E+06 </wgt>
   <wgt id='2045'> 0.10412E+06 </wgt>
   <wgt id='2046'> 0.10231E+06 </wgt>
   <wgt id='2047'> 0.10174E+06 </wgt>
   <wgt id='2048'> 0.10084E+06 </wgt>
   <wgt id='2049'> 0.10313E+06 </wgt>
   <wgt id='2050'> 0.10245E+06 </wgt>
   <wgt id='2051'> 0.99675E+05 </wgt>
   <wgt id='2052'> 0.10096E+06 </wgt>
  </rwgt>
  </event>
  <event npLO=' -1 ' npNLO=' 0 '>
  5      1 0.10292550E+06 0.53415660E+02 0.75467716E-02 0.11800000E+00
       -2 -1    0    0    0  501 0.00000000E+00 0.00000000E+00 0.51374312E+02 0.51375372E+02 0.33000000E+00 0.0000E+00 0.9000E+01
        1 -1    0    0  501    0 0.00000000E+00 0.00000000E+00 -.25487421E+02 0.25489557E+02 0.33000000E+00 0.0000E+00 0.9000E+01
      -24  2    1    2    0    0 0.00000000E+00 0.00000000E+00 0.25886891E+02 0.76864929E+02 0.72374624E+02 0.0000E+00 0.0000E+00
       13  1    3    3    0    0 0.13902480E+02 -.27055064E+02 -.78752840E+01 0.31421119E+02 0.10565837E+00 0.0000E+00 0.9000E+01
      -14  1    3    3    0    0 -.13902480E+02 0.27055064E+02 0.33762174E+02 0.45443810E+02 0.00000000E+00 0.0000E+00 0.9000E+01
#aMCatNLO 1  5  1  1  2 0.57969096E+02 0.27860007E+02 9  0  0 0.10000000E+01 0.86233099E+00 0.11260892E+01 0.91517697E+00 0.10813232E+01
  <rwgt>
   <wgt id='1001'> 0.10292E+06 </wgt>
   <wgt id='1002'> 0.11581E+06 </wgt>
   <wgt id='1003'> 0.88838E+05 </wgt>
   <wgt id='1004'> 0.10292E+06 </wgt>
   <wgt id='1005'> 0.11590E+06 </wgt>
   <wgt id='1006'> 0.88756E+05 </wgt>
   <wgt id='1007'> 0.10293E+06 </wgt>
   <wgt id='1008'> 0.11570E+06 </wgt>
   <wgt id='1009'> 0.88939E+05 </wgt>
   <wgt id='2001'> 0.10090E+06 </wgt>
   <wgt id='2002'> 0.10481E+06 </wgt>
   <wgt id='2003'> 0.10185E+06 </wgt>
   <wgt id='2004'> 0.10402E+06 </wgt>
   <wgt id='2005'> 0.10249E+06 </wgt>
   <wgt id='2006'> 0.10330E+06 </wgt>
   <wgt id='2007'> 0.10070E+06 </wgt>
   <wgt id='2008'> 0.10473E+06 </wgt>
   <wgt id='2009'> 0.10226E+06 </wgt>
   <wgt id='2010'> 0.10376E+06 </wgt>
   <wgt id='2011'> 0.10206E+06 </wgt>
   <wgt id='2012'> 0.10343E+06 </wgt>
   <wgt id='2013'> 0.10014E+06 </wgt>
   <wgt id='2014'> 0.10704E+06 </wgt>
   <wgt id='2015'> 0.10283E+06 </wgt>
   <wgt id='2016'> 0.10292E+06 </wgt>
   <wgt id='2017'> 0.99384E+05 </wgt>
   <wgt id='2018'> 0.10449E+06 </wgt>
   <wgt id='2019'> 0.98604E+05 </wgt>
   <wgt id='2020'> 0.10446E+06 </wgt>
   <wgt id='2021'> 0.10090E+06 </wgt>
   <wgt id='2022'> 0.10492E+06 </wgt>
   <wgt id='2023'> 0.10320E+06 </wgt>
   <wgt id='2024'> 0.10184E+06 </wgt>
   <wgt id='2025'> 0.10344E+06 </wgt>
   <wgt id='2026'> 0.10177E+06 </wgt>
   <wgt id='2027'> 0.10388E+06 </wgt>
   <wgt id='2028'> 0.10213E+06 </wgt>
   <wgt id='2029'> 0.10293E+06 </wgt>
   <wgt id='2030'> 0.10292E+06 </wgt>
   <wgt id='2031'> 0.10214E+06 </wgt>
   <wgt id='2032'> 0.10419E+06 </wgt>
   <wgt id='2033'> 0.10360E+06 </wgt>
   <wgt id='2034'> 0.10180E+06 </wgt>
   <wgt id='2035'> 0.10145E+06 </wgt>
   <wgt id='2036'> 0.10472E+06 </wgt>
   <wgt id='2037'> 0.10306E+06 </wgt>
   <wgt id='2038'> 0.10309E+06 </wgt>
   <wgt id='2039'> 0.10470E+06 </wgt>
   <wgt id='2040'> 0.10242E+06 </wgt>
   <wgt id='2041'> 0.10621E+06 </wgt>
   <wgt id='2042'> 0.10061E+06 </wgt>
   <wgt id='2043'> 0.10399E+06 </wgt>
   <wgt id='2044'> 0.10202E+06 </wgt>
   <wgt id='2045'> 0.10147E+06 </wgt>
   <wgt id='2046'> 0.10651E+06 </wgt>
   <wgt id='2047'> 0.10362E+06 </wgt>
   <wgt id='2048'> 0.10089E+06 </wgt>
   <wgt id='2049'> 0.10168E+06 </wgt>
   <wgt id='2050'> 0.10338E+06 </wgt>
   <wgt id='2051'> 0.10298E+06 </wgt>
   <wgt id='2052'> 0.10244E+06 </wgt>
  </rwgt>
  </event>
  <event npLO=' -1 ' npNLO=' 0 '>
  6      0 0.10292550E+06 0.85874126E+02 0.75467716E-02 0.11654266E+00
        2 -1    0    0  501    0 0.00000000E+00 0.00000000E+00 0.69462491E+01 0.69540834E+01 0.33000000E+00 0.0000E+00 0.9000E+01
       21 -1    0    0  502  501 0.00000000E+00 0.00000000E+00 -.80536437E+03 0.80536437E+03 0.00000000E+00 0.0000E+00 0.9000E+01
       24  2    1    2    0    0 -.49429834E+02 0.27740267E+01 -.48645634E+03 0.49645255E+03 0.85874126E+02 0.0000E+00 0.0000E+00
      -13  1    3    3    0    0 -.24479524E+02 0.16450713E+02 -.44610254E+03 0.44707646E+03 0.10565837E+00 0.0000E+00 0.9000E+01
       14  1    3    3    0    0 -.24950310E+02 -.13676686E+02 -.40353799E+02 0.49376096E+02 0.00000000E+00 0.0000E+00 0.9000E+01
        1  1    1    2  502    0 0.49429834E+02 -.27740267E+01 -.31196178E+03 0.31586590E+03 0.33000000E+00 0.0000E+00 0.9000E+01
#aMCatNLO 2  5  2  2  1 0.64939457E+02 0.49507613E+02 9  0  0 0.10000001E+01 0.87638399E+00 0.11392617E+01 0.92776214E+00 0.10620631E+01
  <rwgt>
   <wgt id='1001'> 0.10293E+06 </wgt>
   <wgt id='1002'> 0.10514E+06 </wgt>
   <wgt id='1003'> 0.99515E+05 </wgt>
   <wgt id='1004'> 0.93290E+05 </wgt>
   <wgt id='1005'> 0.95293E+05 </wgt>
   <wgt id='1006'> 0.90202E+05 </wgt>
   <wgt id='1007'> 0.11480E+06 </wgt>
   <wgt id='1008'> 0.11726E+06 </wgt>
   <wgt id='1009'> 0.11100E+06 </wgt>
   <wgt id='2001'> 0.10246E+06 </wgt>
   <wgt id='2002'> 0.10335E+06 </wgt>
   <wgt id='2003'> 0.10230E+06 </wgt>
   <wgt id='2004'> 0.10358E+06 </wgt>
   <wgt id='2005'> 0.10381E+06 </wgt>
   <wgt id='2006'> 0.10216E+06 </wgt>
   <wgt id='2007'> 0.10425E+06 </wgt>
   <wgt id='2008'> 0.10180E+06 </wgt>
   <wgt id='2009'> 0.10326E+06 </wgt>
   <wgt id='2010'> 0.10247E+06 </wgt>
   <wgt id='2011'> 0.10286E+06 </wgt>
   <wgt id='2012'> 0.10296E+06 </wgt>
   <wgt id='2013'> 0.10383E+06 </wgt>
   <wgt id='2014'> 0.10096E+06 </wgt>
   <wgt id='2015'> 0.10263E+06 </wgt>
   <wgt id='2016'> 0.10319E+06 </wgt>
   <wgt id='2017'> 0.10216E+06 </wgt>
   <wgt id='2018'> 0.10312E+06 </wgt>
   <wgt id='2019'> 0.99832E+05 </wgt>
   <wgt id='2020'> 0.10425E+06 </wgt>
   <wgt id='2021'> 0.10045E+06 </wgt>
   <wgt id='2022'> 0.10485E+06 </wgt>
   <wgt id='2023'> 0.10130E+06 </wgt>
   <wgt id='2024'> 0.10308E+06 </wgt>
   <wgt id='2025'> 0.10247E+06 </wgt>
   <wgt id='2026'> 0.10374E+06 </wgt>
   <wgt id='2027'> 0.10310E+06 </wgt>
   <wgt id='2028'> 0.10282E+06 </wgt>
   <wgt id='2029'> 0.10345E+06 </wgt>
   <wgt id='2030'> 0.10250E+06 </wgt>
   <wgt id='2031'> 0.10117E+06 </wgt>
   <wgt id='2032'> 0.10466E+06 </wgt>
   <wgt id='2033'> 0.10702E+06 </wgt>
   <wgt id='2034'> 0.10025E+06 </wgt>
   <wgt id='2035'> 0.10293E+06 </wgt>
   <wgt id='2036'> 0.10152E+06 </wgt>
   <wgt id='2037'> 0.10267E+06 </wgt>
   <wgt id='2038'> 0.10325E+06 </wgt>
   <wgt id='2039'> 0.10277E+06 </wgt>
   <wgt id='2040'> 0.10217E+06 </wgt>
   <wgt id='2041'> 0.10529E+06 </wgt>
   <wgt id='2042'> 0.10132E+06 </wgt>
   <wgt id='2043'> 0.10369E+06 </wgt>
   <wgt id='2044'> 0.10224E+06 </wgt>
   <wgt id='2045'> 0.10199E+06 </wgt>
   <wgt id='2046'> 0.10493E+06 </wgt>
   <wgt id='2047'> 0.10049E+06 </wgt>
   <wgt id='2048'> 0.10254E+06 </wgt>
   <wgt id='2049'> 0.10185E+06 </wgt>
   <wgt id='2050'> 0.10337E+06 </wgt>
   <wgt id='2051'> 0.10208E+06 </wgt>
   <wgt id='2052'> 0.10060E+06 </wgt>
  </rwgt>
  </event>
  <event npLO=' -1 ' npNLO=' 1 '>
  6      2 0.10292550E+06 0.15230457E+02 0.75467716E-02 0.12110526E+00
       21 -1    0    0  501  502 0.00000000E+00 0.00000000E+00 0.47507807E+02 0.47507807E+02 0.00000000E+00 0.0000E+00 0.9000E+01
        4 -1    0    0  502    0 0.00000000E+00 0.00000000E+00 -.11427174E+03 0.11428158E+03 0.15000000E+01 0.0000E+00 0.9000E+01
       24  2    1    2    0    0 0.12086847E+02 -.92661096E+01 -.97493679E+02 0.12748895E+03 0.80724608E+02 0.0000E+00 0.0000E+00
      -11  1    3    3    0    0 0.20410318E+02 0.58598261E+01 0.63938721E+01 0.22176570E+02 0.51099893E-03 0.0000E+00 0.9000E+01
       12  1    3    3    0    0 -.83234717E+01 -.15125936E+02 -.10388755E+03 0.10531238E+03 0.00000000E+00 0.0000E+00 0.9000E+01
        3  1    1    2  501    0 -.12086847E+02 0.92661096E+01 0.30729748E+02 0.34300439E+02 0.50000000E+00 0.0000E+00 0.9000E+01
#aMCatNLO 1  6  1  0  0 0.00000000E+00 0.12043214E+03 9  0  0 0.99999997E+00 0.70116385E+00 0.13244403E+01 0.91640124E+00 0.10937672E+01
  <rwgt>
   <wgt id='1001'> 0.10293E+06 </wgt>
   <wgt id='1002'> 0.86655E+05 </wgt>
   <wgt id='1003'> 0.10359E+06 </wgt>
   <wgt id='1004'> 0.83303E+05 </wgt>
   <wgt id='1005'> 0.72168E+05 </wgt>
   <wgt id='1006'> 0.82378E+05 </wgt>
   <wgt id='1007'> 0.13280E+06 </wgt>
   <wgt id='1008'> 0.10811E+06 </wgt>
   <wgt id='1009'> 0.13632E+06 </wgt>
   <wgt id='2001'> 0.10278E+06 </wgt>
   <wgt id='2002'> 0.10305E+06 </wgt>
   <wgt id='2003'> 0.10313E+06 </wgt>
   <wgt id='2004'> 0.10271E+06 </wgt>
   <wgt id='2005'> 0.10586E+06 </wgt>
   <wgt id='2006'> 0.10037E+06 </wgt>
   <wgt id='2007'> 0.10313E+06 </wgt>
   <wgt id='2008'> 0.10246E+06 </wgt>
   <wgt id='2009'> 0.10331E+06 </wgt>
   <wgt id='2010'> 0.10242E+06 </wgt>
   <wgt id='2011'> 0.10279E+06 </wgt>
   <wgt id='2012'> 0.10300E+06 </wgt>
   <wgt id='2013'> 0.10017E+06 </wgt>
   <wgt id='2014'> 0.10765E+06 </wgt>
   <wgt id='2015'> 0.10262E+06 </wgt>
   <wgt id='2016'> 0.10319E+06 </wgt>
   <wgt id='2017'> 0.99516E+05 </wgt>
   <wgt id='2018'> 0.10498E+06 </wgt>
   <wgt id='2019'> 0.10326E+06 </wgt>
   <wgt id='2020'> 0.10277E+06 </wgt>
   <wgt id='2021'> 0.10573E+06 </wgt>
   <wgt id='2022'> 0.10088E+06 </wgt>
   <wgt id='2023'> 0.10786E+06 </wgt>
   <wgt id='2024'> 0.98167E+05 </wgt>
   <wgt id='2025'> 0.10322E+06 </wgt>
   <wgt id='2026'> 0.10235E+06 </wgt>
   <wgt id='2027'> 0.10363E+06 </wgt>
   <wgt id='2028'> 0.10233E+06 </wgt>
   <wgt id='2029'> 0.10177E+06 </wgt>
   <wgt id='2030'> 0.10381E+06 </wgt>
   <wgt id='2031'> 0.10482E+06 </wgt>
   <wgt id='2032'> 0.10127E+06 </wgt>
   <wgt id='2033'> 0.10107E+06 </wgt>
   <wgt id='2034'> 0.10320E+06 </wgt>
   <wgt id='2035'> 0.10257E+06 </wgt>
   <wgt id='2036'> 0.10519E+06 </wgt>
   <wgt id='2037'> 0.10306E+06 </wgt>
   <wgt id='2038'> 0.10280E+06 </wgt>
   <wgt id='2039'> 0.10298E+06 </wgt>
   <wgt id='2040'> 0.10414E+06 </wgt>
   <wgt id='2041'> 0.10294E+06 </wgt>
   <wgt id='2042'> 0.10277E+06 </wgt>
   <wgt id='2043'> 0.10294E+06 </wgt>
   <wgt id='2044'> 0.10290E+06 </wgt>
   <wgt id='2045'> 0.10227E+06 </wgt>
   <wgt id='2046'> 0.10398E+06 </wgt>
   <wgt id='2047'> 0.10629E+06 </wgt>
   <wgt id='2048'> 0.99497E+05 </wgt>
   <wgt id='2049'> 0.10313E+06 </wgt>
   <wgt id='2050'> 0.10241E+06 </wgt>
   <wgt id='2051'> 0.10399E+06 </wgt>
   <wgt id='2052'> 0.10301E+06 </wgt>
  </rwgt>
  </event>
  <event npLO=' -1 ' npNLO=' 0 '>
  5      1 0.10292550E+06 0.80522504E+02 0.75467716E-02 0.11800000E+00
        1 -1    0    0  501    0 0.00000000E+00 0.00000000E+00 0.36345502E+03 0.36345517E+03 0.33000000E+00 0.0000E+00 0.9000E+01
       -2 -1    0    0    0  501 0.00000000E+00 0.00000000E+00 -.44536320E+01 0.44658412E+01 0.33000000E+00 0.0000E+00 0.9000E+01
      -24  2    1    2    0    0 0.00000000E+00 0.00000000E+00 0.35900138E+03 0.36792101E+03 0.80522504E+02 0.0000E+00 0.0000E+00
       13  1    3    3    0    0 0.21089328E+01 0.35096083E+02 0.26912899E+03 0.27141593E+03 0.10565837E+00 0.0000E+00 0.9000E+01
      -14  1    3    3    0    0 -.21089328E+01 -.35096083E+02 0.89872390E+02 0.96505073E+02 0.00000000E+00 0.0000E+00 0.9000E+01
#aMCatNLO 1  5  1  1  2 0.12295570E+03 0.84404434E+02 9  0  0 0.10000000E+01 0.88230793E+00 0.11078881E+01 0.92259325E+00 0.10599947E+01
  <rwgt>
   <wgt id='1001'> 0.10293E+06 </wgt>
   <wgt id='1002'> 0.11367E+06 </wgt>
   <wgt id='1003'> 0.90992E+05 </wgt>
   <wgt id='1004'> 0.10317E+06 </wgt>
   <wgt id='1005'> 0.11403E+06 </wgt>
   <wgt id='1006'> 0.91136E+05 </wgt>
   <wgt id='1007'> 0.10262E+06 </wgt>
   <wgt id='1008'> 0.11321E+06 </wgt>
   <wgt id='1009'> 0.90812E+05 </wgt>
   <wgt id='2001'> 0.10147E+06 </wgt>
   <wgt id='2002'> 0.10427E+06 </wgt>
   <wgt id='2003'> 0.10200E+06 </wgt>
   <wgt id='2004'> 0.10389E+06 </wgt>
   <wgt id='2005'> 0.10227E+06 </wgt>
   <wgt id='2006'> 0.10351E+06 </wgt>
   <wgt id='2007'> 0.99771E+05 </wgt>
   <wgt id='2008'> 0.10602E+06 </wgt>
   <wgt id='2009'> 0.10250E+06 </wgt>
   <wgt id='2010'> 0.10338E+06 </wgt>
   <wgt id='2011'> 0.10306E+06 </wgt>
   <wgt id='2012'> 0.10276E+06 </wgt>
   <wgt id='2013'> 0.10221E+06 </wgt>
   <wgt id='2014'> 0.10343E+06 </wgt>
   <wgt id='2015'> 0.10281E+06 </wgt>
   <wgt id='2016'> 0.10289E+06 </wgt>
   <wgt id='2017'> 0.99951E+05 </wgt>
   <wgt id='2018'> 0.10414E+06 </wgt>
   <wgt id='2019'> 0.99941E+05 </wgt>
   <wgt id='2020'> 0.10389E+06 </wgt>
   <wgt id='2021'> 0.10084E+06 </wgt>
   <wgt id='2022'> 0.10415E+06 </wgt>
   <wgt id='2023'> 0.10300E+06 </wgt>
   <wgt id='2024'> 0.10094E+06 </wgt>
   <wgt id='2025'> 0.10193E+06 </wgt>
   <wgt id='2026'> 0.10442E+06 </wgt>
   <wgt id='2027'> 0.10313E+06 </wgt>
   <wgt id='2028'> 0.10270E+06 </wgt>
   <wgt id='2029'> 0.10309E+06 </wgt>
   <wgt id='2030'> 0.10262E+06 </wgt>
   <wgt id='2031'> 0.10399E+06 </wgt>
   <wgt id='2032'> 0.10143E+06 </wgt>
   <wgt id='2033'> 0.10204E+06 </wgt>
   <wgt id='2034'> 0.10276E+06 </wgt>
   <wgt id='2035'> 0.10133E+06 </wgt>
   <wgt id='2036'> 0.10267E+06 </wgt>
   <wgt id='2037'> 0.10081E+06 </wgt>
   <wgt id='2038'> 0.10488E+06 </wgt>
   <wgt id='2039'> 0.10333E+06 </wgt>
   <wgt id='2040'> 0.10176E+06 </wgt>
   <wgt id='2041'> 0.10474E+06 </wgt>
   <wgt id='2042'> 0.10164E+06 </wgt>
   <wgt id='2043'> 0.10240E+06 </wgt>
   <wgt id='2044'> 0.10336E+06 </wgt>
   <wgt id='2045'> 0.10143E+06 </wgt>
   <wgt id='2046'> 0.10610E+06 </wgt>
   <wgt id='2047'> 0.10210E+06 </wgt>
   <wgt id='2048'> 0.10125E+06 </wgt>
   <wgt id='2049'> 0.10192E+06 </wgt>
   <wgt id='2050'> 0.10327E+06 </wgt>
   <wgt id='2051'> 0.10125E+06 </wgt>
   <wgt id='2052'> 0.10282E+06 </wgt>
  </rwgt>
  </event>
  <event npLO=' -1 ' npNLO=' 0 '>
  5      1 0.10292550E+06 0.58688313E+02 0.75467716E-02 0.11980132E+00
        1 -1    0    0  501    0 0.00000000E+00 0.00000000E+00 0.36723655E+02 0.36725137E+02 0.33000000E+00 0.0000E+00 0.9000E+01
       -2 -1    0    0    0  501 0.00000000E+00 0.00000000E+00 -.46480790E+02 0.46481961E+02 0.33000000E+00 0.0000E+00 0.9000E+01
      -24  2    1    2    0    0 0.00000000E+00 0.00000000E+00 -.97571355E+01 0.83207099E+02 0.82633042E+02 0.0000E+00 0.0000E+00
       11  1    3    3    0    0 -.15815633E+02 0.36537217E+02 0.62413560E+01 0.40299591E+02 0.51099893E-03 0.0000E+00 0.9000E+01
      -12  1    3    3    0    0 0.15815633E+02 -.36537217E+02 -.15998491E+02 0.42907508E+02 0.00000000E+00 0.0000E+00 0.9000E+01
#aMCatNLO 1  5  2  0  0 0.00000000E+00 0.00000000E+00 9  0  0 0.10000000E+01 0.78497050E+00 0.12550069E+01 0.91684275E+00 0.10812952E+01
  <rwgt>
   <wgt id='1001'> 0.10293E+06 </wgt>
   <wgt id='1002'> 0.11543E+06 </wgt>
   <wgt id='1003'> 0.89388E+05 </wgt>
   <wgt id='1004'> 0.93030E+05 </wgt>
   <wgt id='1005'> 0.10433E+06 </wgt>
   <wgt id='1006'> 0.80793E+05 </wgt>
   <wgt id='1007'> 0.11517E+06 </wgt>
   <wgt id='1008'> 0.12918E+06 </wgt>
   <wgt id='1009'> 0.10003E+06 </wgt>
   <wgt id='2001'> 0.10093E+06 </wgt>
   <wgt id='2002'> 0.10479E+06 </wgt>
   <wgt id='2003'> 0.10197E+06 </wgt>
   <wgt id='2004'> 0.10390E+06 </wgt>
   <wgt id='2005'> 0.10234E+06 </wgt>
   <wgt id='2006'> 0.10343E+06 </wgt>
   <wgt id='2007'> 0.10092E+06 </wgt>
   <wgt id='2008'> 0.10451E+06 </wgt>
   <wgt id='2009'> 0.10221E+06 </wgt>
   <wgt id='2010'> 0.10384E+06 </wgt>
   <wgt id='2011'> 0.10205E+06 </wgt>
   <wgt id='2012'> 0.10343E+06 </wgt>
   <wgt id='2013'> 0.10015E+06 </wgt>
   <wgt id='2014'> 0.10712E+06 </wgt>
   <wgt id='2015'> 0.10276E+06 </wgt>
   <wgt id='2016'> 0.10300E+06 </wgt>
   <wgt id='2017'> 0.99364E+05 </wgt>
   <wgt id='2018'> 0.10450E+06 </wgt>
   <wgt id='2019'> 0.98612E+05 </wgt>
   <wgt id='2020'> 0.10445E+06 </wgt>
   <wgt id='2021'> 0.10093E+06 </wgt>
   <wgt id='2022'> 0.10496E+06 </wgt>
   <wgt id='2023'> 0.10328E+06 </wgt>
   <wgt id='2024'> 0.10194E+06 </wgt>
   <wgt id='2025'> 0.10343E+06 </wgt>
   <wgt id='2026'> 0.10179E+06 </wgt>
   <wgt id='2027'> 0.10384E+06 </wgt>
   <wgt id='2028'> 0.10217E+06 </wgt>
   <wgt id='2029'> 0.10304E+06 </wgt>
   <wgt id='2030'> 0.10284E+06 </wgt>
   <wgt id='2031'> 0.10224E+06 </wgt>
   <wgt id='2032'> 0.10407E+06 </wgt>
   <wgt id='2033'> 0.10364E+06 </wgt>
   <wgt id='2034'> 0.10182E+06 </wgt>
   <wgt id='2035'> 0.10153E+06 </wgt>
   <wgt id='2036'> 0.10484E+06 </wgt>
   <wgt id='2037'> 0.10298E+06 </wgt>
   <wgt id='2038'> 0.10312E+06 </wgt>
   <wgt id='2039'> 0.10484E+06 </wgt>
   <wgt id='2040'> 0.10240E+06 </wgt>
   <wgt id='2041'> 0.10597E+06 </wgt>
   <wgt id='2042'> 0.10078E+06 </wgt>
   <wgt id='2043'> 0.10388E+06 </wgt>
   <wgt id='2044'> 0.10213E+06 </wgt>
   <wgt id='2045'> 0.10136E+06 </wgt>
   <wgt id='2046'> 0.10663E+06 </wgt>
   <wgt id='2047'> 0.10378E+06 </wgt>
   <wgt id='2048'> 0.10097E+06 </wgt>
   <wgt id='2049'> 0.10179E+06 </wgt>
   <wgt id='2050'> 0.10334E+06 </wgt>
   <wgt id='2051'> 0.10307E+06 </wgt>
   <wgt id='2052'> 0.10263E+06 </wgt>
  </rwgt>
  </event>
  <event npLO=' -1 ' npNLO=' 1 '>
  7      2 -.10292550E+06 0.99867369E+01 0.75467716E-02 0.11800000E+00
        2 -1    0    0  503    0 0.00000000E+00 0.00000000E+00 0.61471638E+03 0.61471647E+03 0.33000000E+00 0.0000E+00 0.9000E+01
       -1 -1    0    0    0  501 0.00000000E+00 0.00000000E+00 -.52226512E+01 0.52330666E+01 0.33000000E+00 0.0000E+00 0.9000E+01
       24  2    1    2    0    0 0.10794121E+01 0.13081169E+02 0.32998265E+03 0.33980189E+03 0.80028053E+02 0.0000E+00 0.0000E+00
      -13  1    3    3    0    0 -.25883393E+02 0.13551579E+02 0.45687131E+02 0.54230254E+02 0.10565837E+00 0.0000E+00 0.9000E+01
       14  1    3    3    0    0 0.26962805E+02 -.47041005E+00 0.28429552E+03 0.28557163E+03 0.00000000E+00 0.0000E+00 0.9000E+01
       21  1    1    2  502  501 0.38422555E+01 -.11911712E+02 0.23810005E+03 0.23842878E+03 0.00000000E+00 0.0000E+00 0.9000E+01
       21  1    1    2  503  502 -.49216675E+01 -.11694566E+01 0.41411027E+02 0.41718864E+02 0.00000000E+00 0.0000E+00 0.9000E+01
#aMCatNLO 2  6  1  1  5 0.60607905E+01 0.50586994E+01 9  0  0 0.10000000E+01 0.16678692E+01 0.59839486E+00 0.91140965E+00 0.10703504E+01
  <rwgt>
   <wgt id='1001'> -.10293E+06 </wgt>
   <wgt id='1002'> -.12243E+06 </wgt>
   <wgt id='1003'> -.81901E+05 </wgt>
   <wgt id='1004'> -.77400E+05 </wgt>
   <wgt id='1005'> -.92067E+05 </wgt>
   <wgt id='1006'> -.61591E+05 </wgt>
   <wgt id='1007'> -.14432E+06 </wgt>
   <wgt id='1008'> -.17167E+06 </wgt>
   <wgt id='1009'> -.11484E+06 </wgt>
   <wgt id='2001'> -.10175E+06 </wgt>
   <wgt id='2002'> -.10402E+06 </wgt>
   <wgt id='2003'> -.10119E+06 </wgt>
   <wgt id='2004'> -.10474E+06 </wgt>
   <wgt id='2005'> -.10248E+06 </wgt>
   <wgt id='2006'> -.10336E+06 </wgt>
   <wgt id='2007'> -.10014E+06 </wgt>
   <wgt id='2008'> -.10580E+06 </wgt>
   <wgt id='2009'> -.10352E+06 </wgt>
   <wgt id='2010'> -.10214E+06 </wgt>
   <wgt id='2011'> -.10286E+06 </wgt>
   <wgt id='2012'> -.10303E+06 </wgt>
   <wgt id='2013'> -.10198E+06 </wgt>
   <wgt id='2014'> -.10361E+06 </wgt>
   <wgt id='2015'> -.10277E+06 </wgt>
   <wgt id='2016'> -.10301E+06 </wgt>
   <wgt id='2017'> -.99567E+05 </wgt>
   <wgt id='2018'> -.10439E+06 </wgt>
   <wgt id='2019'> -.10078E+06 </wgt>
   <wgt id='2020'> -.10350E+06 </wgt>
   <wgt id='2021'> -.99528E+05 </wgt>
   <wgt id='2022'> -.10541E+06 </wgt>
   <wgt id='2023'> -.10200E+06 </wgt>
   <wgt id='2024'> -.10158E+06 </wgt>
   <wgt id='2025'> -.10354E+06 </wgt>
   <wgt id='2026'> -.10167E+06 </wgt>
   <wgt id='2027'> -.10320E+06 </wgt>
   <wgt id='2028'> -.10265E+06 </wgt>
   <wgt id='2029'> -.10252E+06 </wgt>
   <wgt id='2030'> -.10331E+06 </wgt>
   <wgt id='2031'> -.10314E+06 </wgt>
   <wgt id='2032'> -.10270E+06 </wgt>
   <wgt id='2033'> -.10376E+06 </wgt>
   <wgt id='2034'> -.10182E+06 </wgt>
   <wgt id='2035'> -.99074E+05 </wgt>
   <wgt id='2036'> -.10388E+06 </wgt>
   <wgt id='2037'> -.10261E+06 </wgt>
   <wgt id='2038'> -.10363E+06 </wgt>
   <wgt id='2039'> -.10397E+06 </wgt>
   <wgt id='2040'> -.10061E+06 </wgt>
   <wgt id='2041'> -.10518E+06 </wgt>
   <wgt id='2042'> -.10130E+06 </wgt>
   <wgt id='2043'> -.10455E+06 </wgt>
   <wgt id='2044'> -.10157E+06 </wgt>
   <wgt id='2045'> -.10088E+06 </wgt>
   <wgt id='2046'> -.10709E+06 </wgt>
   <wgt id='2047'> -.10182E+06 </wgt>
   <wgt id='2048'> -.10136E+06 </wgt>
   <wgt id='2049'> -.10124E+06 </wgt>
   <wgt id='2050'> -.10372E+06 </wgt>
   <wgt id='2051'> -.10130E+06 </wgt>
   <wgt id='2052'> -.10357E+06 </wgt>
  </rwgt>
  </event>
  <event npLO=' -1 ' npNLO=' 0 '>
  5      0 0.10292550E+06 0.24703763E+02 0.75467716E-02 0.11800000E+00
       -1 -1    0    0    0  501 0.00000000E+00 0.00000000E+00 0.62377008E+01 0.62464239E+01 0.33000000E+00 0.0000E+00 0.9000E+01
        2 -1    0    0  501    0 0.00000000E+00 0.00000000E+00 -.23711716E+03 0.23711739E+03 0.33000000E+00 0.0000E+00 0.9000E+01
       24  2    1    2    0    0 0.00000000E+00 0.00000000E+00 -.23087946E+03 0.24336382E+03 0.76945573E+02 0.0000E+00 0.0000E+00
      -13  1    3    3    0    0 0.93934726E+01 0.18902417E+01 0.24075014E+01 0.98801603E+01 0.10565837E+00 0.0000E+00 0.9000E+01
       14  1    3    3    0    0 -.93934726E+01 -.18902417E+01 -.23328697E+03 0.23348366E+03 0.00000000E+00 0.0000E+00 0.9000E+01
#aMCatNLO 1  5  1  1  2 0.75538766E+02 0.41853357E+02 9  0  0 0.10000000E+01 0.86129440E+00 0.11331678E+01 0.92594108E+00 0.10611059E+01
  <rwgt>
   <wgt id='1001'> 0.10293E+06 </wgt>
   <wgt id='1002'> 0.11499E+06 </wgt>
   <wgt id='1003'> 0.89787E+05 </wgt>
   <wgt id='1004'> 0.10169E+06 </wgt>
   <wgt id='1005'> 0.11368E+06 </wgt>
   <wgt id='1006'> 0.88649E+05 </wgt>
   <wgt id='1007'> 0.10446E+06 </wgt>
   <wgt id='1008'> 0.11664E+06 </wgt>
   <wgt id='1009'> 0.91198E+05 </wgt>
   <wgt id='2001'> 0.10153E+06 </wgt>
   <wgt id='2002'> 0.10422E+06 </wgt>
   <wgt id='2003'> 0.10196E+06 </wgt>
   <wgt id='2004'> 0.10393E+06 </wgt>
   <wgt id='2005'> 0.10289E+06 </wgt>
   <wgt id='2006'> 0.10298E+06 </wgt>
   <wgt id='2007'> 0.10043E+06 </wgt>
   <wgt id='2008'> 0.10533E+06 </wgt>
   <wgt id='2009'> 0.10313E+06 </wgt>
   <wgt id='2010'> 0.10264E+06 </wgt>
   <wgt id='2011'> 0.10273E+06 </wgt>
   <wgt id='2012'> 0.10307E+06 </wgt>
   <wgt id='2013'> 0.10180E+06 </wgt>
   <wgt id='2014'> 0.10407E+06 </wgt>
   <wgt id='2015'> 0.10322E+06 </wgt>
   <wgt id='2016'> 0.10260E+06 </wgt>
   <wgt id='2017'> 0.10011E+06 </wgt>
   <wgt id='2018'> 0.10414E+06 </wgt>
   <wgt id='2019'> 0.10054E+06 </wgt>
   <wgt id='2020'> 0.10368E+06 </wgt>
   <wgt id='2021'> 0.10043E+06 </wgt>
   <wgt id='2022'> 0.10477E+06 </wgt>
   <wgt id='2023'> 0.10287E+06 </wgt>
   <wgt id='2024'> 0.10129E+06 </wgt>
   <wgt id='2025'> 0.10320E+06 </wgt>
   <wgt id='2026'> 0.10229E+06 </wgt>
   <wgt id='2027'> 0.10324E+06 </wgt>
   <wgt id='2028'> 0.10262E+06 </wgt>
   <wgt id='2029'> 0.10221E+06 </wgt>
   <wgt id='2030'> 0.10347E+06 </wgt>
   <wgt id='2031'> 0.10329E+06 </wgt>
   <wgt id='2032'> 0.10262E+06 </wgt>
   <wgt id='2033'> 0.10294E+06 </wgt>
   <wgt id='2034'> 0.10227E+06 </wgt>
   <wgt id='2035'> 0.10033E+06 </wgt>
   <wgt id='2036'> 0.10379E+06 </wgt>
   <wgt id='2037'> 0.10244E+06 </wgt>
   <wgt id='2038'> 0.10370E+06 </wgt>
   <wgt id='2039'> 0.10526E+06 </wgt>
   <wgt id='2040'> 0.10025E+06 </wgt>
   <wgt id='2041'> 0.10407E+06 </wgt>
   <wgt id='2042'> 0.10209E+06 </wgt>
   <wgt id='2043'> 0.10444E+06 </wgt>
   <wgt id='2044'> 0.10154E+06 </wgt>
   <wgt id='2045'> 0.10121E+06 </wgt>
   <wgt id='2046'> 0.10653E+06 </wgt>
   <wgt id='2047'> 0.10210E+06 </wgt>
   <wgt id='2048'> 0.10138E+06 </wgt>
   <wgt id='2049'> 0.10197E+06 </wgt>
   <wgt id='2050'> 0.10324E+06 </wgt>
   <wgt id='2051'> 0.10233E+06 </wgt>
   <wgt id='2052'> 0.10275E+06 </wgt>
  </rwgt>
  </event>
